,C_ID,Name,InChIKey,SMILES,CAS,LogS,smiles_canon
5379,B-11059,(7S)-7-amino-1.2.3-trimethoxy-10-methylsulfanyl-6.7-dihydro-5H-benzo[g]heptalen-9-one,NUNCOHUMTCDISK-AWEZNQCLSA-N,COC1C2C(CC[C@@H](C3C2CCC(C(=O)C3)SC)N)CC(C1OC)OC,002731-16-0,-3.109854247,COC1CC2CCC(N)C3CC(=O)C(SC)CCC3C2C(OC)C1OC
5380,B-11062,2-(4-butoxy-3-methylphenyl)-N-hydroxyacetamide,APYAPSPMAOAUDX-UHFFFAOYSA-N,CCCCOC1CCC(CC1C)CC(=O)NO,002338-01-4,-3.085261297,CCCCOC1CCC(CC(=O)NO)CC1C
5381,B-11064,[3-hydroxy-2.2-di(phenyl)propyl] carbamate,BXUSEVHVYZZWLZ-UHFFFAOYSA-N,OCC(C1CCCCC1)(C1CCCCC1)COC(=O)N,025451-63-2,-2.712489678,NC(=O)OCC(CO)(C1CCCCC1)C1CCCCC1
5382,B-11066,4-methyl-2-[5-(2-sulfosulfanylethylamino)pentoxy]pyridine,JLHPIYCYMLXDIC-UHFFFAOYSA-N,CC1CCNC(C1)OCCCCCNCCSS(=O)(=O)O,041287-10-9,-1.932153157,CC1CCNC(OCCCCCNCCSS(=O)(=O)O)C1
5383,B-11067,4-chloro-2-[5-(2-sulfosulfanylethylamino)pentoxy]quinoline,HGBYUSPXUFKKJJ-UHFFFAOYSA-N,ClC1CC(OCCCCCNCCSS(=O)(=O)O)NC2C1CCCC2,041287-29-0,-3.670859787,O=S(=O)(O)SCCNCCCCCOC1CC(Cl)C2CCCCC2N1
5384,B-11068,1-[2-[2-hydroxy-3-(4-phenylpiperazin-1-yl)propoxy]phenyl]ethanone,YZCWLXAKCWCVOV-UHFFFAOYSA-N,OC(CN1CCN(CC1)C1CCCCC1)COC1CCCCC1C(=O)C,063990-85-2,-2.588133899,CC(=O)C1CCCCC1OCC(O)CN1CCN(C2CCCCC2)CC1
5385,B-11069,4.7-Phenanthroline-5.6-dione,VLPADTBFADIFKG-UHFFFAOYSA-N,O=C1C2NCCCC2C2C(C1=O)NCCC2,000084-12-8,-3.583835624,O=C1C(=O)C2NCCCC2C2CCCNC12
5386,B-11071,2-[5-(benzoyl)thiophen-2-yl]propanoic acid,GUHPRPJDBZHYCJ-UHFFFAOYSA-N,OC(=O)C(C1CCC(S1)C(=O)C1CCCCC1)C,033005-95-7,-2.83501708,CC(C(=O)O)C1CCC(C(=O)C2CCCCC2)S1
5387,B-11073,(E)-1-(1.3-oxazolidin-3-yl)-3-(3.4.5-trimethoxyphenyl)prop-2-en-1-one,ZDCRWTFSSYLCBS-SNAWJCMRSA-N,COC1CC(/C=C/C(=O)N2COCC2)CC(C1OC)OC,038943-53-2,-1.920797532,COC1CC(C=CC(=O)N2CCOC2)CC(OC)C1OC
5388,B-11074,N.N-dimethyl-10-[3-(4-methylpiperazin-1-yl)propyl]phenothiazine-2-sulfonamide,VZYCZNZBPPHOFY-UHFFFAOYSA-N,CN1CCN(CC1)CCCN1C2CCCCC2SC2C1CC(CC2)S(=O)(=O)N(C)C,000316-81-4,-4.537676168,CN1CCN(CCCN2C3CCCCC3SC3CCC(S(=O)(=O)N(C)C)CC32)CC1
5389,B-11075,2-(4-aminophenyl)propanoic acid,WOMVICAMAQURRN-UHFFFAOYSA-N,CC(C1CCC(CC1)N)C(=O)O,059430-62-5,-0.804689247,CC(C(=O)O)C1CCC(N)CC1
5390,B-11076,N.N-bis(2-chloroethyl)-4-(4-methylphenyl)sulfonylmorpholin-2-amine,DJPYUBOZKZSLFO-UHFFFAOYSA-N,ClCCN(C1OCCN(C1)S(=O)(=O)C1CCC(CC1)C)CCCl,063905-03-3,-3.004939134,CC1CCC(S(=O)(=O)N2CCOC(N(CCCl)CCCl)C2)CC1
5391,B-11079,N-[4-(octadecanoylamino)phenyl]octadecanamide,CQISYTXUORWJSX-UHFFFAOYSA-N,CCCCCCCCCCCCCCCCCC(=O)NC1CCC(CC1)NC(=O)CCCCCCCCCCCCCCCCC,016099-54-0,-17.46844557,CCCCCCCCCCCCCCCCCC(=O)NC1CCC(NC(=O)CCCCCCCCCCCCCCCCC)CC1
5392,B-11083,ethyl 2-(2-methyl-4-nitroimidazol-1-yl)acetate,XMPREPGUGSKZIE-UHFFFAOYSA-N,[O-][N+](=O)C1CN(C(N1)C)CC(=O)OCC,013230-22-3,-2.00243706,CCOC(=O)CN1CC([N+](=O)[O-])NC1C
5393,B-11084,3-(3-chlorophenyl)-[1.3]oxazolo[3.2-a][1.3.5]triazine-2.4-dione,MFSMSTRTIKKQPV-UHFFFAOYSA-N,ClC1CCCC(C1)N1C(=O)NC2N(C1=O)CCO2,035629-62-0,-2.403973005,O=C1NC2OCCN2C(=O)N1C1CCCC(Cl)C1
5394,B-11085,2-Methyl-4-nitro-1-(4-nitrophenyl)imidazole,NMTBSNPBIGRZBL-UHFFFAOYSA-N,[O-][N+](=O)C1CCC(CC1)N1CC(NC1C)[N+](=O)[O-],021721-92-6,-3.997553697,CC1NC([N+](=O)[O-])CN1C1CCC([N+](=O)[O-])CC1
5395,B-11086,2-(4-butylsulfanyl-3-methylphenyl)-N-hydroxyacetamide,SWZKVMOOTCVDGL-UHFFFAOYSA-N,CCCCSC1CCC(CC1C)CC(=O)NO,015560-07-3,-3.647101942,CCCCSC1CCC(CC(=O)NO)CC1C
5396,B-11087,1-[4-[3-[4-(3.4-dimethylphenyl)piperazin-1-yl]-2-hydroxypropoxy]phenyl]ethanone,QXTVYOXRHUFOMG-UHFFFAOYSA-N,OC(CN1CCN(CC1)C1CCC(C(C1)C)C)COC1CCC(CC1)C(=O)C,063715-99-1,-3.727116825,CC(=O)C1CCC(OCC(O)CN2CCN(C3CCC(C)C(C)C3)CC2)CC1
5397,B-11090,2-(2-carbamoylphenoxy)acetic acid,RLISWLLILOTWGG-UHFFFAOYSA-N,OC(=O)COC1CCCCC1C(=O)N,025395-22-6,-1.279698097,NC(=O)C1CCCCC1OCC(=O)O
5398,B-11091,(3-carbamoyloxy-2-methyl-2-phenylpropyl) N-propylcarbamate,XOTGIMIAOGYFEM-UHFFFAOYSA-N,CCCNC(=O)OCC(C1CCCCC1)(COC(=O)N)C,025385-13-1,-3.623147512,CCCNC(=O)OCC(C)(COC(N)=O)C1CCCCC1
5399,B-11092,5-chloro-2-[3-(2-sulfosulfanylethylamino)propoxy]pyridine,GQKJIYAQMYZWPY-UHFFFAOYSA-N,ClC1CCC(NC1)OCCCNCCSS(=O)(=O)O,041286-96-8,-1.119843656,O=S(=O)(O)SCCNCCCOC1CCC(Cl)CN1
5400,B-11095,3.4.5-trimethoxy-N-(3-methylpyridin-2-yl)benzamide,JSIPUEXTEYSZGQ-UHFFFAOYSA-N,COC1CC(CC(C1OC)OC)C(=O)NC1NCCCC1C,036845-03-1,-2.743288587,COC1CC(C(=O)NC2NCCCC2C)CC(OC)C1OC
5401,B-11096,2-[2.3-dichloro-4-(hydroxy-thiophen-2-ylmethyl)phenoxy]acetic acid,RSVYIRQHLXEENT-UHFFFAOYSA-N,OC(=O)COC1CCC(C(C1Cl)Cl)C(C1CCCS1)O,055901-78-5,-3.928285057,O=C(O)COC1CCC(C(O)C2CCCS2)C(Cl)C1Cl
5402,B-11099,methyl (1R.15S.16S.20S)-6.7-dimethoxy-16-methyl-17-oxa-3.13-diazapentacyclo[11.8.0.02.10.04.9.015.20]henicosa-2(10).4.6.8.18-pentaene-19-carboxylate,FGWJRZQNNZVCHR-BCRCDCHUSA-N,COC(=O)C1=CO[C@H]([C@H]2[C@@H]1C[C@H]1N(C2)CCC2C1[NH]C1C2CC(C(C1)OC)OC)C,000131-02-2,-2.802629495,COC(=O)C1=COC(C)C2CN3CCC4C5CC(OC)C(OC)CC5NC4C3CC12
5403,B-11102,4-(5-cyclohexyl-2.4-dimethoxyphenyl)-4-oxobutanoic acid,YOCBPCQZXRQJFU-UHFFFAOYSA-N,COC1CC(OC)C(CC1C(=O)CCC(=O)O)C1CCCCC1,036879-87-5,-4.897146155,COC1CC(OC)C(C2CCCCC2)CC1C(=O)CCC(=O)O
5404,B-11104,2-[(4-nitrophenyl)amino]acetic acid,MTRZHSVFAGKMOA-UHFFFAOYSA-N,OC(=O)CNC1CCC(CC1)[N+](=O)[O-],000619-91-0,-1.324131932,O=C(O)CNC1CCC([N+](=O)[O-])CC1
5405,B-11105,1-[4-[2-hydroxy-3-(4-phenylpiperazin-1-yl)propoxy]phenyl]butan-1-one,IUNBSQBAZSNEOK-UHFFFAOYSA-N,CCCC(=O)C1CCC(CC1)OCC(CN1CCN(CC1)C1CCCCC1)O,063867-31-2,-5.238243707,CCCC(=O)C1CCC(OCC(O)CN2CCN(C3CCCCC3)CC2)CC1
5406,B-11106,(6R)-6-[(E)-2-(1.3-benzodioxol-5-yl)ethenyl]-4-methoxy-5.6-dihydropyran-2-one,GTEXBOVBADJOQH-FWEMWIAWSA-N,COC1=CC(=O)O[C@H](C1)/C=C/C1CCC2C(C1)OCO2,000495-85-2,-2.853963361,COC1=CC(=O)OC(C=CC2CCC3OCOC3C2)C1
5407,B-11107,2-(4-methylsulfonylphenyl)imidazo[1.2-a]pyridine,VSLIUWLPFRVCDL-UHFFFAOYSA-N,CS(=O)(=O)C1CCC(CC1)C1NC2N(C1)CCCC2,001222-57-7,-4.178364966,CS(=O)(=O)C1CCC(C2CN3CCCCC3N2)CC1
5408,B-11109,3-(3-chloro-4-propoxyphenyl)-N-hydroxyprop-2-enamide,VJMGTIWUJWAAPO-GQCTYLIASA-N,CCCOC1CCC(CC1Cl)/C=C/C(=O)NO,026227-98-5,-3.574580219,CCCOC1CCC(C=CC(=O)NO)CC1Cl
5409,B-11110,(benzoylamino)thiourea,OWKWAVBMKKZMHE-UHFFFAOYSA-N,O=C(C1CCCCC1)NNC(=S)N,005351-66-6,-2.078381217,NC(=S)NNC(=O)C1CCCCC1
5410,B-11111,[2-(3.5-diacetyloxyphenyl)-1-(propan-2-ylamino)ethyl] acetate,VLAPOICCOPIXJJ-UHFFFAOYSA-N,CC(NC(CC1CC(OC(=O)C)CC(C1)OC(=O)C)OC(=O)C)C,063951-00-8,-3.06421606,CC(=O)OC1CC(CC(NC(C)C)OC(C)=O)CC(OC(C)=O)C1
5411,B-11112,4.6-dimethyl-2-[3-(2-sulfosulfanylethylamino)propoxy]quinoline,BSUIFZACDFHAMH-UHFFFAOYSA-N,CC1CCC2C(C1)C(C)CC(N2)OCCCNCCSS(=O)(=O)O,041287-31-4,-2.965622728,CC1CCC2NC(OCCCNCCSS(=O)(=O)O)CC(C)C2C1
5412,B-11113,1-[4-[2-hydroxy-3-(2-phenylethylamino)propoxy]phenyl]propan-1-one,CBEPLVOEOHUBOH-UHFFFAOYSA-N,CCC(=O)C1CCC(CC1)OCC(CNCCC1CCCCC1)O,063957-24-4,-2.851409598,CCC(=O)C1CCC(OCC(O)CNCCC2CCCCC2)CC1
5413,B-11114,[3-(2-sulfosulfanylethylamino)propylamino]benzene,QFQFUYYLEUQHTP-UHFFFAOYSA-N,OS(=O)(=O)SCCNCCCNC1CCCCC1,023563-75-9,-2.547063418,O=S(=O)(O)SCCNCCCNC1CCCCC1
5414,B-11116,2-[3-chloro-4-(phenylmethoxy)phenyl]acetic acid,DFHBBMJTBBLQSA-UHFFFAOYSA-N,OC(=O)CC1CCC(C(C1)Cl)OCC1CCCCC1,060736-70-1,-3.752725412,O=C(O)CC1CCC(OCC2CCCCC2)C(Cl)C1
5415,B-11117,5H-phenazin-1-one,KLJWTLFECGZQCL-UHFFFAOYSA-N,O=C1CCCC2C1NC1CCCCC1[NH]2,000528-71-2,-1.925176651,O=C1CCCC2NC3CCCCC3NC12
5416,B-11118,8-(4-hydroxybutyl)-1.3-dimethyl-7H-purine-2.6-dione,NIAMBTSPHJKHDH-UHFFFAOYSA-N,OCCCCC1[NH]C2C(N1)N(C)C(=O)N(C2=O)C,035873-44-0,-2.491248088,CN1C(=O)C2NC(CCCCO)NC2N(C)C1=O
5417,B-11121,1-[3-[3-[4-(3.4-dimethylphenyl)piperazin-1-yl]-2-hydroxypropoxy]phenyl]ethanone,ICALPHVLOAKCMX-UHFFFAOYSA-N,OC(CN1CCN(CC1)C1CCC(C(C1)C)C)COC1CCCC(C1)C(=O)C,063715-98-0,-3.727116825,CC(=O)C1CCCC(OCC(O)CN2CCN(C3CCC(C)C(C)C3)CC2)C1
5418,B-11123,3-HYDROXY-4-METHOXYBENZOIC ACID,LBKFGYZQBSGRHY-UHFFFAOYSA-N,COC1CCC(CC1O)C(=O)O,000645-08-9,-1.469055572,COC1CCC(C(=O)O)CC1O
5419,B-11124,6.6-dimethyl-1-[3-(2.4.5-trichlorophenoxy)propoxy]-1.3.5-triazine-2.4-diamine,MJZJYWCQPMNPRM-UHFFFAOYSA-N,NC1=NC(N(C(=N1)N)OCCCOC1CC(Cl)C(CC1Cl)Cl)(C)C,030711-93-4,-4.278182885,CC1(C)N=C(N)N=C(N)N1OCCCOC1CC(Cl)C(Cl)CC1Cl
5420,B-11125,[2.2-dichloro-3-(4-chlorophenyl)-3-hydroxypropyl] carbamate,RENLSHPSGMACFW-UHFFFAOYSA-N,OC(C(COC(=O)N)(Cl)Cl)C1CCC(CC1)Cl,001477-41-4,-3.418103511,NC(=O)OCC(Cl)(Cl)C(O)C1CCC(Cl)CC1
5421,B-11126,2-hydroxy-N-(2-hydroxyethyl)-5-iodo-3-phenylbenzamide,RJODSWMFHIEXQP-UHFFFAOYSA-N,OCCNC(=O)C1CC(I)CC(C1O)C1CCCCC1,063992-47-2,-4.365924556,O=C(NCCO)C1CC(I)CC(C2CCCCC2)C1O
5422,B-11127,3-(2-propoxyphenoxy)propane-1.2-diol,SHLGUEVDTGWLBS-UHFFFAOYSA-N,CCCOC1CCCCC1OCC(CO)O,063991-76-4,-2.051434758,CCCOC1CCCCC1OCC(O)CO
5423,B-11128,[2-[(5-nitro-1.3-thiazol-2-yl)carbamoyl]phenyl] acetate,YQNQNVDNTFHQSW-UHFFFAOYSA-N,CC(=O)OC1CCCCC1C(=O)NC1NCC(S1)[N+](=O)[O-],055981-09-4,-3.423076305,CC(=O)OC1CCCCC1C(=O)NC1NCC([N+](=O)[O-])S1
5424,B-11129,3.4.5-trimethoxy-N.N-bis(2-methoxyethyl)benzamide,SZLPEYBCBJPFBC-UHFFFAOYSA-N,COCCN(C(=O)C1CC(OC)C(C(C1)OC)OC)CCOC,063886-98-6,-1.32192358,COCCN(CCOC)C(=O)C1CC(OC)C(OC)C(OC)C1
5425,B-11130,4-acetamido-N-(2-diethylaminoethyl)benzamide,KEECCEWTUVWFCV-UHFFFAOYSA-N,CCN(CCNC(=O)C1CCC(CC1)NC(=O)C)CC,032795-44-1,-2.068858113,CCN(CC)CCNC(=O)C1CCC(NC(C)=O)CC1
5426,B-11131,7-ethyl-5-(2-fluorophenyl)-3.4-dihydrothieno[3.2-f][1.4]diazepin-2-one,WDCROVAUQRFURX-UHFFFAOYSA-N,CCC1SC2=NC(=O)CNC(=C2C1)C1CCCCC1F,041191-07-5,-3.090689037,CCC1CC2=C(C3CCCCC3F)NCC(=O)N=C2S1
5427,B-11132,N-hydroxy-2-(4-pentylsulfanylphenyl)acetamide,HOTDMJSWRGBPDM-UHFFFAOYSA-N,CCCCCSC1CCC(CC1)CC(=O)NO,063884-96-8,-3.598917372,CCCCCSC1CCC(CC(=O)NO)CC1
5428,B-11133,(pyridin-4-ylmethylideneamino)thiourea,QTSJJDIDTYFLFC-BJMVGYQFSA-N,NC(=S)N/N=C/C1CCNCC1,001200-00-6,0.105903163,NC(=S)NN=CC1CCNCC1
5429,B-11134,1.5-dimethyl-4-[(3-methyl-2-phenylmorpholin-4-yl)methyl]-2-phenylpyrazol-3-one,OOGNFQMTGRZRAB-UHFFFAOYSA-N,CC1N(CCOC1C1CCCCC1)CC1C(=O)N(N(C1C)C)C1CCCCC1,006536-18-1,-3.56787742,CC1C(C2CCCCC2)OCCN1CC1C(=O)N(C2CCCCC2)N(C)C1C
5430,B-11137,5-(butan-2-ylamino)-1.6-dimethyl-3-phenylpyrimidine-2.4-dione,ZNNFDLJQLKVLRQ-UHFFFAOYSA-N,CCC(NC1C(C)N(C)C(=O)N(C1=O)C1CCCCC1)C,032150-70-2,-2.571940139,CCC(C)NC1C(=O)N(C2CCCCC2)C(=O)N(C)C1C
5431,B-11138,(2R)-2-amino-3-[4-(4-hydroxy-3-iodophenoxy)-3.5-diiodophenyl]propanoic acid,AUYYCJSJGJYCDS-GFCCVEGCSA-N,OC(=O)[C@@H](CC1CC(I)C(C(C1)I)OC1CCC(C(C1)I)O)N,000327-86-6,-5.2199998,NC(CC1CC(I)C(OC2CCC(O)C(I)C2)C(I)C1)C(=O)O
5432,B-11139,1-[4-[2-hydroxy-3-[(2-hydroxy-2-phenylethyl)amino]propoxy]phenyl]propan-1-one,VFFZMENAPNQPEI-UHFFFAOYSA-N,CCC(=O)C1CCC(CC1)OCC(CNCC(C1CCCCC1)O)O,036115-98-7,-2.001803272,CCC(=O)C1CCC(OCC(O)CNCC(O)C2CCCCC2)CC1
5433,B-11140,2-methyl-4-morpholin-4-yl-2-phenylbutanamide,OCHUSCDFUYOEMO-UHFFFAOYSA-N,NC(=O)C(C1CCCCC1)(CCN1CCOCC1)C,002977-25-5,-1.734938904,CC(CCN1CCOCC1)(C(N)=O)C1CCCCC1
5434,B-11142,N.N-dimethyl-2-(5-methyl-2-nitroimidazol-1-yl)acetamide,FYGCJWVUNPQAFB-UHFFFAOYSA-N,O=C(N(C)C)CN1C(C)CNC1[N+](=O)[O-],023585-77-5,-2.682325209,CC1CNC([N+](=O)[O-])N1CC(=O)N(C)C
5435,B-11143,3-(4-methylpiperazin-1-yl)-N-[(5-nitrofuran-2-yl)methylideneamino]propanamide,ZLHXMPGUFBZWDX-UHFFFAOYSA-N,CN1CCN(CC1)CCC(=O)NN=CC1CCC(O1)[N+](=O)[O-],024632-63-1,-2.601114709,CN1CCN(CCC(=O)NN=CC2CCC([N+](=O)[O-])O2)CC1
5436,B-11144,5-methyl-2-[5-(2-sulfosulfanylethylamino)pentoxy]pyridine,CZIXEOZHJUMELR-UHFFFAOYSA-N,CC1CCC(NC1)OCCCCCNCCSS(=O)(=O)O,041287-11-0,-1.932153157,CC1CCC(OCCCCCNCCSS(=O)(=O)O)NC1
5437,B-11145,2-[3-chloro-4-(3-methylbutoxy)phenyl]-N-hydroxyacetamide,RNFLPYXRXDOZNZ-UHFFFAOYSA-N,ONC(=O)CC1CCC(C(C1)Cl)OCCC(C)C,015560-63-1,-3.777099316,CC(C)CCOC1CCC(CC(=O)NO)CC1Cl
5438,B-11147,2-(4-butoxy-3-fluorophenyl)-N-hydroxyacetamide,TUQVWHPFYRZAOJ-UHFFFAOYSA-N,CCCCOC1CCC(CC1F)CC(=O)NO,015560-65-3,-2.81900782,CCCCOC1CCC(CC(=O)NO)CC1F
5439,B-11149,(E)-1-(1.2-oxazolidin-2-yl)-3-(3.4.5-trimethoxyphenyl)prop-2-en-1-one,HPAYMSPTGHIORM-AATRIKPKSA-N,COC1CC(/C=C/C(=O)N2CCCO2)CC(C1OC)OC,038943-47-4,-1.529321098,COC1CC(C=CC(=O)N2CCCO2)CC(OC)C1OC
5440,B-11150,2-naphthalen-1-yl-N'-propan-2-ylpent-4-enehydrazide,NUJZVNHAGUEUAQ-UHFFFAOYSA-N,C=CCC(C1CCCC2C1CCCC2)C(=O)NNC(C)C,003684-09-1,-4.672693434,C=CCC(C(=O)NNC(C)C)C1CCCC2CCCCC21
5441,B-11151,2-(4-methyl-2-sulfanylidene-3H-1.3-thiazol-5-yl)acetic acid,KYBOCQHDFLVQIB-UHFFFAOYSA-N,CC1C(CC(=O)O)SC(=S)[NH]1,034272-64-5,-0.570311198,CC1NC(=S)SC1CC(=O)O
5442,B-11152,5-bromo-2-[3-(2-sulfosulfanylethylamino)propoxy]pyridine,GDNKUULIIOQEJQ-UHFFFAOYSA-N,BrC1CCC(NC1)OCCCNCCSS(=O)(=O)O,041286-94-6,-1.653755639,O=S(=O)(O)SCCNCCCOC1CCC(Br)CN1
5443,B-11153,2-[4-(2.2-Dichlorocyclopropyl)phenoxy]-2-methylpropanoic acid,KPSRODZRAIWAKH-UHFFFAOYSA-N,OC(=O)C(OC1CCC(CC1)C1CC1(Cl)Cl)(C)C,052214-84-3,-4.179638328,CC(C)(OC1CCC(C2CC2(Cl)Cl)CC1)C(=O)O
5444,B-11154,4-dimethylamino-1-phenyl-3.4-dihydronaphthalene-2-sulfonic acid,JJVUBVYJJVCKSL-UHFFFAOYSA-N,CN(C1CC(=C(C2C1CCCC2)C1CCCCC1)S(=O)(=O)O)C,052371-28-5,-1.173349779,CN(C)C1CC(S(=O)(=O)O)=C(C2CCCCC2)C2CCCCC21
5445,B-11155,7-hydroxy-2-(4-hydroxyphenyl)chromen-4-one,LCAWNFIFMLXZPQ-UHFFFAOYSA-N,OC1CCC(CC1)C1CC(=O)C2C(O1)CC(CC2)O,002196-14-7,-2.650897252,O=C1CC(C2CCC(O)CC2)OC2CC(O)CCC12
5446,B-11156,(2R)-2-amino-3-(1H-indol-3-yl)propanoic acid,QIVBCDIJIAJPQS-SECBINFHSA-N,OC(=O)[C@@H](CC1C[NH]C2C1CCCC2)N,000153-94-6,-1.23,NC(CC1CNC2CCCCC12)C(=O)O
5447,B-11157,(3-carbamoyloxy-2-methyl-2-phenylpropyl) N-phenylcarbamate,KHYQRBMKDBGYKN-UHFFFAOYSA-N,NC(=O)OCC(C1CCCCC1)(COC(=O)NC1CCCCC1)C,025451-76-7,-4.565509382,CC(COC(N)=O)(COC(=O)NC1CCCCC1)C1CCCCC1
5448,B-11159,3-[2-(diethylamino)ethyl]-1-[(5-nitrofuran-2-yl)methylideneamino]imidazolidine-2.4-dione,FLYYDGHNISORAD-UHFFFAOYSA-N,CCN(CCN1C(=O)CN(C1=O)N=CC1CCC(O1)[N+](=O)[O-])CC,063765-97-9,-2.66712607,CCN(CC)CCN1C(=O)CN(N=CC2CCC([N+](=O)[O-])O2)C1=O
5449,B-11160,3-[3-chloro-4-(3-methylbutoxy)phenyl]-N-hydroxyprop-2-enamide,CVMNGQUKPNSVQJ-UHFFFAOYSA-N,ONC(=O)C=CC1CCC(C(C1)Cl)OCCC(C)C,026228-01-3,-4.554762463,CC(C)CCOC1CCC(C=CC(=O)NO)CC1Cl
5450,B-11161,4-methyl-2-[3-(2-sulfosulfanylethylamino)propoxy]quinoline,ZHPJNOBWVPAADW-UHFFFAOYSA-N,CC1CC(OCCCNCCSS(=O)(=O)O)NC2C1CCCC2,041287-26-7,-2.396668661,CC1CC(OCCCNCCSS(=O)(=O)O)NC2CCCCC12
5451,B-11162,2.4.6-Trihydroxybenzoic acid,IBHWREHFNDMRPR-UHFFFAOYSA-N,OC1CC(O)C(C(C1)O)C(=O)O,000083-30-7,-0.958913768,O=C(O)C1C(O)CC(O)CC1O
5452,B-11163,[2-hydroxy-3-(2-methylphenoxy)propyl] carbamate,KRPAJLYSLFNDOA-UHFFFAOYSA-N,OC(COC1CCCCC1C)COC(=O)N,000533-06-2,-1.460558628,CC1CCCCC1OCC(O)COC(N)=O
5453,B-11164,5-(2-sulfosulfanylethylamino)pentylbenzene,WIOLAWBMDVBVDE-UHFFFAOYSA-N,OS(=O)(=O)SCCNCCCCCC1CCCCC1,025350-46-3,-2.264581729,O=S(=O)(O)SCCNCCCCCC1CCCCC1
5454,B-11165,5-chloro-2-[2-(2-sulfosulfanylethylamino)ethoxy]pyridine,TWIULPUWWRMHGV-UHFFFAOYSA-N,ClC1CCC(NC1)OCCNCCSS(=O)(=O)O,041286-93-5,-0.599268395,O=S(=O)(O)SCCNCCOC1CCC(Cl)CN1
5455,B-11166,7-chloro-4-[5-(2-sulfosulfanylethylamino)pentoxy]quinoline,CKQHXOCXLJZGSX-UHFFFAOYSA-N,ClC1CCC2C(C1)NCCC2OCCCCCNCCSS(=O)(=O)O,041287-43-8,-3.670859787,O=S(=O)(O)SCCNCCCCCOC1CCNC2CC(Cl)CCC21
5456,B-11167,(6aS.11bR)-7.11b-dihydro-6H-indeno[2.1-c]chromene-3.6a.9.10-tetrol,UWHUTZOCTZJUKC-JKSUJKDBSA-N,OC1CCC2C(C1)OC[C@]1([C@@H]2C2CC(O)C(CC2C1)O)O,000474-07-7,-1.218498477,OC1CCC2C(C1)OCC1(O)CC3CC(O)C(O)CC3C21
5457,B-11169,3-[(1S)-1-(4-chlorophenyl)-3-oxobutyl]-4-hydroxychromen-2-one,DEKWZWCFHUABHE-HNNXBMFYSA-N,CC(=O)C[C@H](C1C(=O)OC2C(C1O)CCCC2)C1CCC(CC1)Cl,070888-76-5,-5.8400002,CC(=O)CC(C1CCC(Cl)CC1)C1C(=O)OC2CCCCC2C1O
5458,B-11170,4-oxo-4-(1-phenylpentoxy)butanoic acid,NIACDRXJTWKKRD-UHFFFAOYSA-N,CCCCC(C1CCCCC1)OC(=O)CCC(=O)O,000135-36-4,-3.907583932,CCCCC(OC(=O)CCC(=O)O)C1CCCCC1
5459,B-11172,2-[4-(4-hydroxy-3.5-diiodophenoxy)-3.5-diiodophenyl]acetic acid,PPJYSSNKSXAVDB-UHFFFAOYSA-N,OC(=O)CC1CC(I)C(C(C1)I)OC1CC(I)C(C(C1)I)O,000067-30-1,-9.50831619,O=C(O)CC1CC(I)C(OC2CC(I)C(O)C(I)C2)C(I)C1
5460,B-11173,5-[(2-methoxyphenoxy)methyl]-1.3-oxazolidin-2-one,ZMNSRFNUONFLSP-UHFFFAOYSA-N,COC1CCCCC1OCC1CNC(=O)O1,000070-07-5,-2.406244562,COC1CCCCC1OCC1CNC(=O)O1
5461,B-11174,2-(7-nitro-1.4-dihydro-2.3-benzoxazin-3-yl)ethyl carbamate,CVGRWCDFXQGLOY-UHFFFAOYSA-N,NC(=O)OCCN1OCC2C(C1)CCC(C2)[N+](=O)[O-],021038-12-0,-2.29979829,NC(=O)OCCN1CC2CCC([N+](=O)[O-])CC2CO1
5462,B-11175,N-(4-Ethoxyphenyl)-3-hydroxybutanamide,LIAWQASKBFCRNR-UHFFFAOYSA-N,CCOC1CCC(CC1)NC(=O)CC(O)C,156674-12-3,-2.321077058,CCOC1CCC(NC(=O)CC(C)O)CC1
5463,B-11176,4-hydroxy-3-[(1S)-3-oxo-1-phenylbutyl]chromen-2-one,PJVWKTKQMONHTI-HNNXBMFYSA-N,CC(=O)C[C@H](C1C(=O)OC2C(C1O)CCCC2)C1CCCCC1,005543-57-7,-3.8900001,CC(=O)CC(C1CCCCC1)C1C(=O)OC2CCCCC2C1O
5464,B-11177,methyl 2-[2-hydroxy-3-[4-(2-hydroxyethyl)piperazin-1-yl]propoxy]-6-methyl-3-propan-2-ylbenzoate,ACFSLNOJYWCHEO-UHFFFAOYSA-N,OCCN1CCN(CC1)CC(COC1C(CCC(C1C(=O)OC)C)C(C)C)O,053335-20-9,-3.284306346,COC(=O)C1C(C)CCC(C(C)C)C1OCC(O)CN1CCN(CCO)CC1
5465,B-11178,7-ethyl-5-phenyl-3.4-dihydrothieno[3.2-f][1.4]diazepin-2-one,NMRDXFFPHGFGSX-UHFFFAOYSA-N,CCC1CC2=C(NCC(=O)N=C2S1)C1CCCCC1,039227-95-7,-3.8086771,CCC1CC2=C(C3CCCCC3)NCC(=O)N=C2S1
5466,B-11179,5-iodo-2-[7-(2-sulfosulfanylethylamino)heptoxy]pyridine,UMPSEGNTCDIXFF-UHFFFAOYSA-N,IC1CCC(NC1)OCCCCCCCNCCSS(=O)(=O)O,041287-16-5,-4.318184209,O=S(=O)(O)SCCNCCCCCCCOC1CCC(I)CN1
5467,B-11180,2-hydroxy-N-(2-hydroxyethyl)-3.5-di(propan-2-yl)benzamide,ICFXSIAFGXAWNF-UHFFFAOYSA-N,OCCNC(=O)C1CC(CC(C1O)C(C)C)C(C)C,063992-46-1,-3.492874971,CC(C)C1CC(C(=O)NCCO)C(O)C(C(C)C)C1
5468,B-11181,[2.6-dimethoxy-4-(morpholine-4-carbonyl)phenyl] ethyl carbonate,SFVJZJHVCCHUGR-UHFFFAOYSA-N,CCOC(=O)OC1C(OC)CC(CC1OC)C(=O)N1CCOCC1,001703-31-7,-2.060818146,CCOC(=O)OC1C(OC)CC(C(=O)N2CCOCC2)CC1OC
5469,B-11182,(2S.3R)-2-amino-3-(3.4-dihydroxyphenyl)-3-hydroxypropanoic acid,QXWYKJLNLSIPIN-JGVFFNPUSA-N,OC(=O)[C@H]([C@@H](C1CCC(C(C1)O)O)O)N,043160-12-9,0.130627695,NC(C(=O)O)C(O)C1CCC(O)C(O)C1
5470,B-11184,2-[2-[4-[(4-chlorophenyl)-phenylmethyl]piperazin-1-yl]ethoxy]acetic acid,ZKLPARSLTMPFCP-UHFFFAOYSA-N,OC(=O)COCCN1CCN(CC1)C(C1CCC(CC1)Cl)C1CCCCC1,083881-51-0,-0.747407006,O=C(O)COCCN1CCN(C(C2CCCCC2)C2CCC(Cl)CC2)CC1
5471,B-11185,1-[3-[2-hydroxy-3-[4-(2-methoxyphenyl)piperazin-1-yl]propoxy]phenyl]ethanone,DRPFIPXZBMWJTH-UHFFFAOYSA-N,COC1CCCCC1N1CCN(CC1)CC(COC1CCCC(C1)C(=O)C)O,063990-75-0,-2.875599286,COC1CCCCC1N1CCN(CC(O)COC2CCCC(C(C)=O)C2)CC1
5472,B-11186,2-[2.3-dichloro-4-(5-chlorofuran-2-carbonyl)phenoxy]acetic acid,DEFHRKSFURUDIU-UHFFFAOYSA-N,OC(=O)COC1CCC(C(C1Cl)Cl)C(=O)C1CCC(O1)Cl,064046-44-2,-4.376184529,O=C(O)COC1CCC(C(=O)C2CCC(Cl)O2)C(Cl)C1Cl
5473,B-11187,2-(4-butoxy-3-ethylphenyl)-N-hydroxyacetamide,LDMNWDMAZKMCSI-UHFFFAOYSA-N,CCCCOC1CCC(CC1CC)CC(=O)NO,063884-94-6,-3.60784573,CCCCOC1CCC(CC(=O)NO)CC1CC
5474,B-11188,[2-hydroxy-3-(5.6.7.8-tetrahydronaphthalen-2-yloxy)propyl] carbamate,NWSILLQQTSAKHH-UHFFFAOYSA-N,OC(COC1CCC2C(C1)CCCC2)COC(=O)N,006159-12-2,-3.271463622,NC(=O)OCC(O)COC1CCC2CCCCC2C1
5475,B-11190,[(2S)-2-hydroxy-3-(2-methoxyphenoxy)propyl] carbamate,GNXFOGHNGIVQEH-QMMMGPOBSA-N,COC1CCCCC1OC[C@@H](COC(=O)N)O,108914-10-9,-0.99000001,COC1CCCCC1OCC(O)COC(N)=O
5476,B-11191,2-(3-chloro-4-pentoxyphenyl)-N-hydroxyacetamide,KKEAXAUOTXQKNV-UHFFFAOYSA-N,CCCCCOC1CCC(CC1Cl)CC(=O)NO,023142-41-8,-3.839762619,CCCCCOC1CCC(CC(=O)NO)CC1Cl
5477,B-11192,2.3-diacetyloxybenzoic acid,NYIZXMGNIUSNKL-UHFFFAOYSA-N,CC(=O)OC1C(CCCC1C(=O)O)OC(=O)C,000486-79-3,-1.647039255,CC(=O)OC1CCCC(C(=O)O)C1OC(C)=O
5478,B-11193,5-bromo-2-(2-hydroxyethoxy)benzamide,DKPDJFHVGNUHSL-UHFFFAOYSA-N,OCCOC1CCC(CC1C(=O)N)Br,063887-00-3,-1.268990626,NC(=O)C1CC(Br)CCC1OCCO
5479,B-11194,(pyridin-3-ylmethylideneamino)thiourea,ABWLRVJYVVQTGQ-BJMVGYQFSA-N,NC(=S)N/N=C/C1CCCNC1,000555-90-8,0.105903163,NC(=S)NN=CC1CCCNC1
5480,B-11195,4-[3-(2-chlorophenothiazin-10-yl)propyl]piperazine-1-carboxamide,PURWGRLHMWOIRC-UHFFFAOYSA-N,ClC1CCC2C(C1)N(CCCN1CCN(CC1)C(=O)N)C1C(S2)CCCC1,014053-35-1,-6.556023449,NC(=O)N1CCN(CCCN2C3CCCCC3SC3CCC(Cl)CC32)CC1
5481,B-11197,5-chloro-2-[4-(2-sulfosulfanylethylamino)butoxy]pyridine,FQGLMGYMTSCAPM-UHFFFAOYSA-N,ClC1CCC(NC1)OCCCCNCCSS(=O)(=O)O,041287-00-7,-1.642125728,O=S(=O)(O)SCCNCCCCOC1CCC(Cl)CN1