,C_ID,Name,InChIKey,SMILES,CAS,LogS,smiles_canon
5276,B-10911,3-(4-ethoxy-3-methylphenyl)-N-hydroxyprop-2-enamide,GZQJPGZDCLWDDG-FNORWQNLSA-N,CCOC1CCC(CC1C)/C=C/C(=O)NO,026228-09-1,-2.82114859,CCOC1CCC(C=CC(=O)NO)CC1C
5277,B-10912,N-[3-[(E)-3-phenylprop-2-enyl]-3.8-diazabicyclo[3.2.1]octan-8-yl]propanamide,MDXNMVCZLPPTQC-RMKNXTFCSA-N,CCC(=O)NN1C2CCC1CN(C2)C/C=C/C1CCCCC1,038074-16-7,-3.11078992,CCC(=O)NN1C2CCC1CN(CC=CC1CCCCC1)C2
5278,B-10913,2-[4-[3.3.3-tri(phenyl)propyl]piperazin-1-yl]pyrimidin-4-amine,SSHUEVNEGPWTJB-UHFFFAOYSA-N,NC1CCNC(N1)N1CCN(CC1)CCC(C1CCCCC1)(C1CCCCC1)C1CCCCC1,020980-14-7,-5.842595707,NC1CCNC(N2CCN(CCC(C3CCCCC3)(C3CCCCC3)C3CCCCC3)CC2)N1
5279,B-10915,5-bromo-6-methyl-3-phenyl-1-prop-2-enylpyrimidine-2.4-dione,XDDCZCNSNJJQDF-UHFFFAOYSA-N,C=CCN1C(C)C(Br)C(=O)N(C1=O)C1CCCCC1,032000-72-9,-2.850642192,C=CCN1C(=O)N(C2CCCCC2)C(=O)C(Br)C1C
5280,B-10916,1-(4-chlorophenyl)-2-imidazol-1-ylethanol,HMMMTSXSWRPUOJ-UHFFFAOYSA-N,ClC1CCC(CC1)C(CN1CNCC1)O,024155-45-1,-2.457244591,OC(CN1CCNC1)C1CCC(Cl)CC1
5281,B-10918,N-[(4-hydroxy-3-methoxyphenyl)methyl]nonanamide,RGOVYLWUIBMPGK-UHFFFAOYSA-N,CCCCCCCCC(=O)NCC1CCC(C(C1)OC)O,002444-46-4,-4.579853185,CCCCCCCCC(=O)NCC1CCC(O)C(OC)C1
5282,B-10920,2-(2-phenyl-1.3-benzothiazol-6-yl)acetic acid,DGIRRQAONAAJCV-UHFFFAOYSA-N,OC(=O)CC1CCC2C(C1)SC(N2)C1CCCCC1,036782-39-5,-3.646361785,O=C(O)CC1CCC2NC(C3CCCCC3)SC2C1
5283,B-10921,2-(2-phenyl-1.3-benzothiazol-5-yl)acetic acid,CGJFGPQHBSLGOO-UHFFFAOYSA-N,OC(=O)CC1CCC2C(C1)NC(S2)C1CCCCC1,036774-74-0,-3.646361785,O=C(O)CC1CCC2SC(C3CCCCC3)NC2C1
5284,B-10923,1-(3-acetyl-2.4.6-trihydroxyphenyl)ethanone,PIFFQYJYNWXNGE-UHFFFAOYSA-N,CC(=O)C1C(O)CC(C(C1O)C(=O)C)O,002161-86-6,-2.734890754,CC(=O)C1C(O)CC(O)C(C(C)=O)C1O
5285,B-10924,ethyl 2-[3-(2-diethylaminoethyl)-4-methyl-2-oxochromen-7-yl]oxyacetate,KLOIYEQEVSIOOO-UHFFFAOYSA-N,CCOC(=O)COC1CCC2C(C1)OC(=O)C(C2C)CCN(CC)CC,000655-35-6,-3.730406094,CCOC(=O)COC1CCC2C(C1)OC(=O)C(CCN(CC)CC)C2C
5286,B-10925,3-ethyl-2-methyl-5-(morpholin-4-ylmethyl)-1.5.6.7-tetrahydroindol-4-one,KLPWJLBORRMFGK-UHFFFAOYSA-N,CCC1C(C)[NH]C2C1C(=O)C(CC2)CN1CCOCC1,065973-37-7,-2.983170987,CCC1C(C)NC2CCC(CN3CCOCC3)C(=O)C21
5287,B-10926,3-(3-phenylprop-2-enyl)-8-propanoyl-3.8-diazabicyclo[3.2.1]octan-4-one,QHHNVIFYIZJACJ-RMKNXTFCSA-N,CCC(=O)N1C2CCC1C(=O)N(C2)C/C=C/C1CCCCC1,022315-22-6,-2.891579654,CCC(=O)N1C2CCC1C(=O)N(CC=CC1CCCCC1)C2
5288,B-10927,2-(2-nitro-5-propylimidazol-1-yl)ethanol,GWZPIQCXKKBYAW-UHFFFAOYSA-N,CCCC1CNC(N1CCO)[N+](=O)[O-],022877-76-5,-1.881009866,CCCC1CNC([N+](=O)[O-])N1CCO
5289,B-10928,3-phenyl-8-propanoyl-3.8-diazabicyclo[3.2.1]octane-2.4-dione,JBSDYSSKUBAYBU-UHFFFAOYSA-N,CCC(=O)N1C2CCC1C(=O)N(C2=O)C1CCCCC1,035142-71-3,-1.712420082,CCC(=O)N1C2CCC1C(=O)N(C1CCCCC1)C2=O
5290,B-10930,4-[3-[4.7-dimethoxy-6-(2-piperidin-1-ylethoxy)-1-benzofuran-5-yl]-3-hydroxypropyl]phenol,LIAPJIQUUKLLDZ-UHFFFAOYSA-N,COC1C(C(CCC2CCC(CC2)O)O)C(OCCN2CCCCC2)C(C2C1CCO2)OC,040680-87-3,-4.810964336,COC1C2OCCC2C(OC)C(C(O)CCC2CCC(O)CC2)C1OCCN1CCCCC1
5291,B-10934,4-[[(1-amino-2-sulfosulfanylethylidene)amino]methyl]-1.2-dimethylbenzene,SJTMUPFIWQTRER-UHFFFAOYSA-N,N/C(=N\CC1CCC(C(C1)C)C)/CSS(=O)(=O)O,063869-36-3,-2.898863754,CC1CCC(CN=C(N)CSS(=O)(=O)O)CC1C
5292,B-10935,4-bromo-4.4-dinitro-1-phenylbutane-1.2-diol,DNXJJIZZMJTTAV-UHFFFAOYSA-N,OC(C(CC([N+](=O)[O-])([N+](=O)[O-])Br)O)C1CCCCC1,063732-27-4,-1.706961481,O=[N+]([O-])C(Br)(CC(O)C(O)C1CCCCC1)[N+](=O)[O-]
5293,B-10937,3-[3-[4-[di(phenyl)methyl]piperazin-1-yl]propyl]-1H-benzimidazol-2-one,BAINIUMDFURPJM-UHFFFAOYSA-N,O=C1[NH]C2C(N1CCCN1CCN(CC1)C(C1CCCCC1)C1CCCCC1)CCCC2,060607-34-3,-5.810177136,O=C1NC2CCCCC2N1CCCN1CCN(C(C2CCCCC2)C2CCCCC2)CC1
5294,B-10940,(8S.11R.13S.14S.17S)-11-(4-dimethylaminophenyl)-17-hydroxy-13-methyl-17-prop-1-ynyl-1.2.6.7.8.11.12.14.15.16-decahydrocyclopenta[a]phenanthren-3-one,VKHAHZOOUSRJNA-GCNJZUOMSA-N,CC#C[C@]1(O)CC[C@@H]2[C@]1(C)C[C@H](C1CCC(CC1)N(C)C)C1=C3CCC(=O)C=C3CC[C@@H]21	,084371-65-3,-5.9,CC#CC1(O)CCC2C3CCC4=CC(=O)CCC4=C3C(C3CCC(N(C)C)CC3)CC21C
5295,B-10942,3-methyl-2-(2-morpholin-4-ylethyl)-2-phenylbutanamide,CQQQDWPTFATORJ-UHFFFAOYSA-N,CC(C(C1CCCCC1)(C(=O)N)CCN1CCOCC1)C,064037-71-4,-2.714819068,CC(C)C(CCN1CCOCC1)(C(N)=O)C1CCCCC1
5296,B-10943,4-methoxy-N-[5-(2-methylpropyl)-1.3.4-thiadiazol-2-yl]benzenesulfonamide,LZCBNYVJTNCPDR-UHFFFAOYSA-N,COC1CCC(CC1)S(=O)(=O)NC1NNC(S1)CC(C)C,003567-08-6,-3.987471311,COC1CCC(S(=O)(=O)NC2NNC(CC(C)C)S2)CC1
5297,B-10944,4-amino-N-(3-methylpyridin-2-yl)benzamide,WUQYKHRMHJGLAI-UHFFFAOYSA-N,NC1CCC(CC1)C(=O)NC1NCCCC1C,017710-06-4,-1.831491572,CC1CCCNC1NC(=O)C1CCC(N)CC1
5298,B-10945,5-dimethylamino-3-(2-hydroxyethyl)-6-methyl-1-phenylpyrimidine-2.4-dione,KRABLEGNCHMGDR-UHFFFAOYSA-N,OCCN1C(=O)N(C2CCCCC2)C(C(C1=O)N(C)C)C,038507-11-8,-2.573783657,CC1C(N(C)C)C(=O)N(CCO)C(=O)N1C1CCCCC1
5299,B-10947,3-[Bis(2-chloroethyl)amino]-4-methylbenzoic acid,DKROWFJGHDLNFQ-UHFFFAOYSA-N,ClCCN(C1CC(CCC1C)C(=O)O)CCCl,005977-35-5,-4.707156785,CC1CCC(C(=O)O)CC1N(CCCl)CCCl
5300,B-10948,2-ethoxy-6-nitroacridin-9-amine,NDKYICANXPTKKC-UHFFFAOYSA-N,CCOC1CCC2C(C1)C(N)C1C(N2)CC(CC1)[N+](=O)[O-],020304-70-5,-5.149030573,CCOC1CCC2NC3CC([N+](=O)[O-])CCC3C(N)C2C1
5301,B-10949,1-(4-fluorophenyl)-4-[4-(2-sulfanylidene-3H-benzimidazol-1-yl)piperidin-1-yl]butan-1-one,YDLQKLWVKKFPII-UHFFFAOYSA-N,FC1CCC(CC1)C(=O)CCCN1CCC(CC1)N1C(=S)[NH]C2C1CCCC2,057648-21-2,-5.679018161,O=C(CCCN1CCC(N2C(=S)NC3CCCCC32)CC1)C1CCC(F)CC1
5302,B-10950,3-[(4-methylpiperazin-1-yl)methyl]-5.5-di(phenyl)imidazolidine-2.4-dione,KNVIWKFOCCEBOC-UHFFFAOYSA-N,CN1CCN(CC1)CN1C(=O)NC(C1=O)(C1CCCCC1)C1CCCCC1,021598-58-3,-2.850673656,CN1CCN(CN2C(=O)NC(C3CCCCC3)(C3CCCCC3)C2=O)CC1
5303,B-10951,[1-(2-acetylphenoxy)-3-[4-(2-methoxyphenyl)piperazin-1-yl]propan-2-yl] acetate,WDMDRQDYTJNZNG-UHFFFAOYSA-N,COC1CCCCC1N1CCN(CC1)CC(OC(=O)C)COC1CCCCC1C(=O)C,063990-76-1,-4.039982672,COC1CCCCC1N1CCN(CC(COC2CCCCC2C(C)=O)OC(C)=O)CC1
5304,B-10952,N'-(phenylmethyl)pyridine-2-carbohydrazide,MAUBFEHMBSQXMM-UHFFFAOYSA-N,O=C(C1CCCCN1)NNCC1CCCCC1,013045-62-0,-2.020076645,O=C(NNCC1CCCCC1)C1CCCCN1
5305,B-10953,2-[2-(bis(3-methylbut-2-enyl)amino)ethyl]-5-methyl-2-naphthalen-1-ylhex-4-enamide,XHMIIRLZSKEDPY-UHFFFAOYSA-N,CC(=CCC(C1CCCC2C1CCCC2)(C(=O)N)CCN(CC=C(C)C)CC=C(C)C)C,050765-96-3,-8.935435203,CC(C)=CCN(CC=C(C)C)CCC(CC=C(C)C)(C(N)=O)C1CCCC2CCCCC21
5306,B-10954,6-(5-nitrofuran-2-yl)-2H-1.2.4-triazine-3.5-dione,OYQZCMCEAPUWHK-UHFFFAOYSA-N,[O-][N+](=O)C1CCC(O1)C1N[NH]C(=O)[NH]C1=O,000050-94-2,-2.782302142,O=C1NNC(C2CCC([N+](=O)[O-])O2)C(=O)N1
5307,B-10955,2-[(2-methylphenyl)methylamino]-2-phenylacetic acid,TZWJIEYUCJKWND-UHFFFAOYSA-N,OC(=O)C(C1CCCCC1)NCC1CCCCC1C,063906-48-9,-3.941696881,CC1CCCCC1CNC(C(=O)O)C1CCCCC1
5308,B-10956,3-[3-carbamoyloxypropyl-(4-methylphenyl)amino]propyl carbamate,MULDUPLDVOLZSA-UHFFFAOYSA-N,NC(=O)OCCCN(C1CCC(CC1)C)CCCOC(=O)N,019351-45-2,-3.162092979,CC1CCC(N(CCCOC(N)=O)CCCOC(N)=O)CC1
5309,B-10957,(E)-N-hydroxy-3-(4-methoxy-3-methylphenyl)prop-2-enamide,XBQMOSVDTGDYFV-GQCTYLIASA-N,ONC(=O)/C=C/C1CCC(C(C1)C)OC,026228-08-0,-2.299417192,COC1CCC(C=CC(=O)NO)CC1C
5310,B-10958,2-(2-oxo-4H-1.3-benzoxazin-3-yl)acetamide,KYCBWEZLKCTALM-UHFFFAOYSA-N,NC(=O)CN1CC2CCCCC2OC1=O,018464-39-6,-0.903007854,NC(=O)CN1CC2CCCCC2OC1=O
5311,B-10959,2-[4-(1.3-benzodioxol-5-ylmethyl)piperazin-1-yl]-1-phenothiazin-10-ylethanone,UBAJTZKNDCEGKL-UHFFFAOYSA-N,O=C(N1C2CCCCC2SC2C1CCCC2)CN1CCN(CC1)CC1CCC2C(C1)OCO2,037561-27-6,-5.05564226,O=C(CN1CCN(CC2CCC3OCOC3C2)CC1)N1C2CCCCC2SC2CCCCC21
5312,B-10961,[1.1-di(phenyl)-3-(2-sulfosulfanylethylamino)propyl]benzene,LUSHIYVPITXVAK-UHFFFAOYSA-N,OS(=O)(=O)SCCNCCC(C1CCCCC1)(C1CCCCC1)C1CCCCC1,027976-23-4,-4.710369334,O=S(=O)(O)SCCNCCC(C1CCCCC1)(C1CCCCC1)C1CCCCC1
5313,B-10965,3-(4-nitrophenyl)prop-2-enoic acid,XMMRNCHTDONGRJ-ZZXKWVIFSA-N,OC(=O)/C=C/C1CCC(CC1)[N+](=O)[O-],000619-89-6,-2.415508795,O=C(O)C=CC1CCC([N+](=O)[O-])CC1
5314,B-10966,1-[2-[3-[4-(3.4-dimethylphenyl)piperazin-1-yl]-2-hydroxypropoxy]phenyl]ethanone,NZKIQIJDMKXDFV-UHFFFAOYSA-N,OC(CN1CCN(CC1)C1CCC(C(C1)C)C)COC1CCCCC1C(=O)C,042583-20-0,-3.727116825,CC(=O)C1CCCCC1OCC(O)CN1CCN(C2CCC(C)C(C)C2)CC1
5315,B-10968,(E)-N-hydroxy-3-(4-methoxyphenyl)prop-2-enamide,BQDLTSGIXOYYHY-QPJJXVBHSA-N,ONC(=O)/C=C/C1CCC(CC1)OC,025357-01-1,-1.729709117,COC1CCC(C=CC(=O)NO)CC1
5316,B-10969,2-ethylamino-5-phenyl-1.3-oxazol-4-one,RXOIEVSUURELPG-UHFFFAOYSA-N,CCNC1=NC(=O)C(O1)C1CCCCC1,015302-16-6,-1.13056562,CCNC1=NC(=O)C(C2CCCCC2)O1
5317,B-10970,(E)-N-hydroxy-3-(4-propoxyphenyl)prop-2-enamide,GDGHIDZSGIYVRJ-VMPITWQZSA-N,CCCOC1CCC(CC1)/C=C/C(=O)NO,026227-45-2,-2.773186225,CCCOC1CCC(C=CC(=O)NO)CC1
5318,B-10973,5-bromo-2-[10-(2-sulfosulfanylethylamino)decoxy]pyridine,VMPGAQLGAMYZMS-UHFFFAOYSA-N,BrC1CCC(NC1)OCCCCCCCCCCNCCSS(=O)(=O)O,041287-17-6,-5.304236198,O=S(=O)(O)SCCNCCCCCCCCCCOC1CCC(Br)CN1
5319,B-10974,2-(2-sulfosulfanylethylamino)ethoxybenzene,CRSNGJNHERUXSD-UHFFFAOYSA-N,OS(=O)(=O)SCCNCCOC1CCCCC1,001085-52-5,-0.417727003,O=S(=O)(O)SCCNCCOC1CCCCC1
5320,B-10975,3-(3-ethoxy-4-propoxyphenyl)-N-hydroxyprop-2-enamide,AJSCNQJAGCMGAK-UHFFFAOYSA-N,CCCOC1CCC(CC1OCC)C=CC(=O)NO,026228-06-8,-3.140450738,CCCOC1CCC(C=CC(=O)NO)CC1OCC
5321,B-10976,2-[4-(3-methyl-3.8-diazabicyclo[3.2.1]octane-8-carbonyl)phenyl]acetic acid,ZAXKSTCANCQSEB-UHFFFAOYSA-N,CN1CC2CCC(C1)N2C(=O)C1CCC(CC1)CC(=O)O,057269-43-9,-2.539792081,CN1CC2CCC(C1)N2C(=O)C1CCC(CC(=O)O)CC1
5322,B-10978,3-(3-hydroxy-4-methoxyphenyl)prop-2-enoic acid,QURCVMIEKCOAJU-HWKANZROSA-N,COC1CCC(CC1O)/C=C/C(=O)O,025522-33-2,-1.431489025,COC1CCC(C=CC(=O)O)CC1O
5323,B-10979,propan-2-yl 2-sulfamoylbenzoate,UADGDKCDJALXDM-UHFFFAOYSA-N,CC(OC(=O)C1CCCCC1S(=O)(=O)N)C,014065-41-9,-2.395762179,CC(C)OC(=O)C1CCCCC1S(N)(=O)=O
5324,B-10981,4-amino-N-(3-methylpyridin-4-yl)benzamide,HTLAGNLOROOWLR-UHFFFAOYSA-N,NC1CCC(CC1)C(=O)NC1CCNCC1C,036855-65-9,-1.831491572,CC1CNCCC1NC(=O)C1CCC(N)CC1
5325,B-10983,4-amino-N-(5-methylpyridin-2-yl)benzamide,BARXDSNMNYUFCZ-UHFFFAOYSA-N,NC1CCC(CC1)C(=O)NC1CCC(CN1)C,017710-08-6,-2.3112134,CC1CCC(NC(=O)C2CCC(N)CC2)NC1
5326,B-10985,2-[3-(benzoyl)phenyl]acetic acid,ALDSXDRDRWDASQ-UHFFFAOYSA-N,OC(=O)CC1CCCC(C1)C(=O)C1CCCCC1,022071-22-3,-2.763677516,O=C(O)CC1CCCC(C(=O)C2CCCCC2)C1
5327,B-10986,3-(4-hydroxyphenoxy)propane-1.2-diol,QAKJEUIMEVJFTM-UHFFFAOYSA-N,OCC(COC1CCC(CC1)O)O,022402-45-5,0.052794953,OCC(O)COC1CCC(O)CC1
5328,B-10987,2-(8-methyl-3.8-diazabicyclo[3.2.1]octan-3-yl)ethyl 4-aminobenzoate,ZAEBUEMQCGDBRC-UHFFFAOYSA-N,CN1C2CCC1CN(C2)CCOC(=O)C1CCC(CC1)N,063978-08-5,-1.424040514,CN1C2CCC1CN(CCOC(=O)C1CCC(N)CC1)C2
5329,B-10989,methyl 2-[2-hydroxy-3-(prop-2-ynylamino)propoxy]-6-methyl-3-propan-2-ylbenzoate,XQPZMLWDJXTBRD-UHFFFAOYSA-N,C#CCNCC(COC1C(CCC(C1C(=O)OC)C)C(C)C)O,053206-81-8,-2.709151682,C#CCNCC(O)COC1C(C(C)C)CCC(C)C1C(=O)OC
5330,B-10991,(E)-3-(4-butoxy-3-methylphenyl)-N-hydroxyprop-2-enamide,MPNVSKLDSKNFBT-SOFGYWHQSA-N,CCCCOC1CCC(CC1C)/C=C/C(=O)NO,026228-11-5,-3.86398532,CCCCOC1CCC(C=CC(=O)NO)CC1C
5331,B-10992,5.6-dimethoxy-2-methyl-3-[2-(4-phenylpiperazin-1-yl)ethyl]-1H-indole,XCWPUUGSGHNIDZ-UHFFFAOYSA-N,COC1CC2C(CC1OC)[NH]C(C2CCN1CCN(CC1)C1CCCCC1)C,000153-87-7,-4.24859969,COC1CC2NC(C)C(CCN3CCN(C4CCCCC4)CC3)C2CC1OC
5332,B-10993,6-(phenoxymethyl)-1.3-oxazinane-2-thione,NIPRGEWHJUTVQK-UHFFFAOYSA-N,S=C1NCCC(O1)COC1CCCCC1,039754-64-8,-3.020489651,S=C1NCCC(COC2CCCCC2)O1
5333,B-10994,4-(bis(3-methylbut-2-enyl)amino)-2-[2-(bis(3-methylbut-2-enyl)amino)ethyl]-2-naphthalen-1-ylbutanamide,RCUAUWPBLXTBGM-UHFFFAOYSA-N,CC(=CCN(CCC(C1CCCC2C1CCCC2)(C(=O)N)CCN(CC=C(C)C)CC=C(C)C)CC=C(C)C)C,050765-97-4,-11.02788979,CC(C)=CCN(CC=C(C)C)CCC(CCN(CC=C(C)C)CC=C(C)C)(C(N)=O)C1CCCC2CCCCC21
5334,B-10997,2-(4-butoxy-3-chlorophenyl)-N-hydroxyacetamide,QWCMRXJDYXVLTM-UHFFFAOYSA-N,CCCCOC1CCC(CC1Cl)CC(=O)NO,015560-60-8,-3.781728396,CCCCOC1CCC(CC(=O)NO)CC1Cl
5335,B-10998,3-[4.5-dihydro-1H-imidazol-2-ylmethyl-(4-methylphenyl)amino]phenol,MRBDMNSDAVCSSF-UHFFFAOYSA-N,CC1CCC(CC1)N(C1CCCC(C1)O)CC1=NCCN1,000050-60-2,-4.787448142,CC1CCC(N(CC2=NCCN2)C2CCCC(O)C2)CC1
5336,B-10999,3-(3-ethoxy-4-pentoxyphenyl)-N-hydroxyprop-2-enamide,FJNJUBSOKARRGE-UHFFFAOYSA-N,CCCCCOC1CCC(CC1OCC)C=CC(=O)NO,026323-86-4,-4.184104124,CCCCCOC1CCC(C=CC(=O)NO)CC1OCC
5337,B-11001,[(4-dimethylaminophenyl)methylideneamino]thiourea,MUDHKEQEBJQRRG-KPKJPENVSA-N,CN(C1CCC(CC1)/C=N/NC(=S)N)C,002929-81-9,-2.667531102,CN(C)C1CCC(C=NNC(N)=S)CC1
5338,B-11002,4-amino-N-(5.6-dimethylpyridin-2-yl)benzamide,FYZHOAYTFZAELD-UHFFFAOYSA-N,NC1CCC(CC1)C(=O)NC1CCC(C(N1)C)C,036845-12-2,-2.881487279,CC1CCC(NC(=O)C2CCC(N)CC2)NC1C
5339,B-11003,2-(di(propan-2-yl)amino)-N-[(5-nitrofuran-2-yl)methylideneamino]acetamide,HDSDGRXOONRLIE-VGOFMYFVSA-N,CC(N(C(C)C)CC(=O)N/N=C/C1CCC(O1)[N+](=O)[O-])C,001037-77-0,-3.024613193,CC(C)N(CC(=O)NN=CC1CCC([N+](=O)[O-])O1)C(C)C
5340,B-11004,2-[2-(4-methoxyphenyl)-2-oxoethyl]benzoic acid,DPXWHZUTDZONDB-UHFFFAOYSA-N,COC1CCC(CC1)C(=O)CC1CCCCC1C(=O)O,033533-90-3,-3.734590995,COC1CCC(C(=O)CC2CCCCC2C(=O)O)CC1
5341,B-11006,N-(1H-imidazol-2-yl)-4-nitrobenzamide,KFDZTHIWFNKNAO-UHFFFAOYSA-N,O=C(C1CCC(CC1)[N+](=O)[O-])NC1NCC[NH]1,036918-78-2,-2.258650394,O=C(NC1NCCN1)C1CCC([N+](=O)[O-])CC1
5342,B-11007,1-[2-(2.3-dihydroxypropoxy)phenyl]ethanone,PLLGIMWGTWNSQB-UHFFFAOYSA-N,OCC(COC1CCCCC1C(=O)C)O,001939-70-4,-1.195587826,CC(=O)C1CCCCC1OCC(O)CO
5343,B-11010,1-[4-[2-hydroxy-3-(4-phenyl-2.3-dihydropyridin-3-yl)propoxy]phenyl]propan-1-one,JXFXKSDXMALIDC-UHFFFAOYSA-N,CCC(=O)C1CCC(CC1)OCC(CC1CN=CC=C1C1CCCCC1)O,063957-35-7,-4.084781849,CCC(=O)C1CCC(OCC(O)CC2CN=CC=C2C2CCCCC2)CC1
5344,B-11011,[4-(bis(2-bromoethyl)amino)phenyl] 4-nitrobenzoate,SDAIMQSEPQFQJY-UHFFFAOYSA-N,BrCCN(C1CCC(CC1)OC(=O)C1CCC(CC1)[N+](=O)[O-])CCBr,022953-44-2,-7.052888078,O=C(OC1CCC(N(CCBr)CCBr)CC1)C1CCC([N+](=O)[O-])CC1
5345,B-11013,2-methyl-1H-quinazolin-4-one,FIEYHAAMDAPVCH-UHFFFAOYSA-N,CC1NC(=O)C2C([NH]1)CCCC2,001769-24-0,-1.844761935,CC1NC(=O)C2CCCCC2N1
5346,B-11017,[2.4.6-trioxo-5-(1-phenylethyl)-1.3-diazinan-5-yl] 2-methylpropanoate,IOBTZSDTPDLZMK-UHFFFAOYSA-N,CC(C1(OC(=O)C(C)C)C(=O)NC(=O)NC1=O)C1CCCCC1,037431-39-3,-4.385604923,CC(C)C(=O)OC1(C(C)C2CCCCC2)C(=O)NC(=O)NC1=O
5347,B-11018,1-(3.4-dihydroxyphenyl)-2-(propan-2-ylamino)ethanone,BIQMIYWSZZTXEX-UHFFFAOYSA-N,CC(NCC(=O)C1CCC(C(C1)O)O)C,000121-28-8,-0.316333715,CC(C)NCC(=O)C1CCC(O)C(O)C1
5348,B-11019,(E)-3-(4-butoxy-3-ethoxyphenyl)-N-hydroxyprop-2-enamide,BUFWGDYEFYPADP-VQHVLOKHSA-N,CCCCOC1CCC(CC1OCC)/C=C/C(=O)NO,025357-03-3,-3.662223331,CCCCOC1CCC(C=CC(=O)NO)CC1OCC
5349,B-11020,1-(2-Bromoethyl)-2-methyl-4-nitroimidazole,CSQXNWZCQFPOFB-UHFFFAOYSA-N,[O-][N+](=O)C1CN(C(N1)C)CCBr,018504-27-3,-2.839114495,CC1NC([N+](=O)[O-])CN1CCBr
5350,B-11022,2-(6-methoxynaphthalen-2-yl)acetic acid,PHJFLPMVEFKEPL-UHFFFAOYSA-N,COC1CCC2C(C1)CCC(C2)CC(=O)O,023981-47-7,-2.790859935,COC1CCC2CC(CC(=O)O)CCC2C1
5351,B-11023,1-[3-(2-sulfosulfanylethylamino)propoxy]isoquinoline,PUCADCOCQQBSLL-UHFFFAOYSA-N,OS(=O)(=O)SCCNCCCOC1NCCC2C1CCCC2,041287-44-9,-1.826999106,O=S(=O)(O)SCCNCCCOC1NCCC2CCCCC21
5352,B-11024,3.4.5-trimethoxy-N-(2-propyl-3.4-dihydro-1H-isoquinolin-5-yl)benzamide,NHCCUUKOKFWVLH-UHFFFAOYSA-N,CCCN1CCC2C(C1)CCCC2NC(=O)C1CC(OC)C(C(C1)OC)OC,037481-31-5,-4.219381262,CCCN1CCC2C(CCCC2NC(=O)C2CC(OC)C(OC)C(OC)C2)C1
5353,B-11025,5-bromo-2-[5-(2-sulfosulfanylethylamino)pentoxy]pyridine,QTALKBKPQXGYGL-UHFFFAOYSA-N,BrC1CCC(NC1)OCCCCCNCCSS(=O)(=O)O,041287-04-1,-2.697144508,O=S(=O)(O)SCCNCCCCCOC1CCC(Br)CN1
5354,B-11027,N-hydroxy-2-(4-propoxyphenyl)acetamide,LDCVQEHNEIJAPV-UHFFFAOYSA-N,CCCOC1CCC(CC1)CC(=O)NO,013363-00-3,-1.994319228,CCCOC1CCC(CC(=O)NO)CC1
5355,B-11028,2-(3.4-Dimethoxyphenyl)acetamide,CUWOZWFDSYIYHL-UHFFFAOYSA-N,COC1CC(CCC1OC)CC(=O)N,005663-56-9,-0.788092739,COC1CCC(CC(N)=O)CC1OC
5356,B-11029,3-(2-chlorophenoxy)-2-methylpropane-1.2-diol,NUUIWQTXXMNXON-UHFFFAOYSA-N,OCC(COC1CCCCC1Cl)(O)C,063834-69-5,-2.110471462,CC(O)(CO)COC1CCCCC1Cl
5357,B-11031,[4-[2-hydroxy-3-(4-phenylpiperazin-1-yl)propoxy]phenyl] propanoate,CUYFBDNSBSBVCF-UHFFFAOYSA-N,CCC(=O)OC1CCC(CC1)OCC(CN1CCN(CC1)C1CCCCC1)O,063716-19-8,-3.155116966,CCC(=O)OC1CCC(OCC(O)CN2CCN(C3CCCCC3)CC2)CC1
5358,B-11032,[4-(bis(2-bromoethyl)amino)phenyl] 4-phenylbenzoate,IUUDHOBDQKMUFS-UHFFFAOYSA-N,BrCCN(C1CCC(CC1)OC(=O)C1CCC(CC1)C1CCCCC1)CCBr,022953-45-3,-8.552550735,O=C(OC1CCC(N(CCBr)CCBr)CC1)C1CCC(C2CCCCC2)CC1
5359,B-11033,N-(6-methylpyridin-2-yl)-4-nitrobenzamide,QXGCRDZPPUDHNX-UHFFFAOYSA-N,O=C(C1CCC(CC1)[N+](=O)[O-])NC1CCCC(N1)C,037586-00-8,-3.548222299,CC1CCCC(NC(=O)C2CCC([N+](=O)[O-])CC2)N1
5360,B-11034,2-amino-5-phenyl-1.3-oxazol-4-one,NRNCYVBFPDDJNE-UHFFFAOYSA-N,O=C1N=C(OC1C1CCCCC1)N,101053-01-4,-2.50063522,NC1=NC(=O)C(C2CCCCC2)O1
5361,B-11035,5-bromo-2-[2-(2-sulfosulfanylethylamino)ethoxy]pyridine,NRJCXKSPPCEIAQ-UHFFFAOYSA-N,BrC1CCC(NC1)OCCNCCSS(=O)(=O)O,041286-92-4,-1.133000685,O=S(=O)(O)SCCNCCOC1CCC(Br)CN1
5362,B-11037,3-cyano-2-(3.3-dimethylbutan-2-yl)-1-pyridin-4-ylguanidine,IVVNZDGDKPTYHK-UHFFFAOYSA-N,CC(C(C)(C)C)/N=C(/NC1CCNCC1)\NC#N,113563-69-2,-0.885959976,CC(N=C(NC#N)NC1CCNCC1)C(C)(C)C
5363,B-11038,2-dimethylaminoethyl 4-butylamino-2-hydroxybenzoate,DHCUQNSUUYMFGX-UHFFFAOYSA-N,CCCCNC1CCC(C(C1)O)C(=O)OCCN(C)C,000490-98-2,-3.182910636,CCCCNC1CCC(C(=O)OCCN(C)C)C(O)C1
5364,B-11041,6-amino-3-ethyl-1-prop-2-enylpyrimidine-2.4-dione,NGXUUAFYUCOICP-UHFFFAOYSA-N,CCN1C(=O)N(CC=C)C(CC1=O)N,000642-44-4,-1.079942733,C=CCN1C(=O)N(CC)C(=O)CC1N
5365,B-11042,N-prop-2-enyl-2-[4-[3.3.3-tri(phenyl)propyl]piperazin-1-yl]pyrimidin-5-amine,FFRDTEGDTSKBIT-UHFFFAOYSA-N,C=CCNC1CNC(NC1)N1CCN(CC1)CCC(C1CCCCC1)(C1CCCCC1)C1CCCCC1,020980-18-1,-7.324412834,C=CCNC1CNC(N2CCN(CCC(C3CCCCC3)(C3CCCCC3)C3CCCCC3)CC2)NC1
5366,B-11044,[(2R)-2.3-dihydroxypropyl] 2-[(7-chloroquinolin-4-yl)amino]benzoate,GWOFUCIGLDBNKM-CYBMUJFWSA-N,OC[C@H](COC(=O)C1CCCCC1NC1CCNC2C1CCC(C2)Cl)O,1301253-65-5,-4.5700002,O=C(OCC(O)CO)C1CCCCC1NC1CCNC2CC(Cl)CCC21
5367,B-11045,N-[2-(2.3-dihydroxypropoxy)phenyl]acetamide,PKALPKIBIKMTCN-UHFFFAOYSA-N,OCC(COC1CCCCC1NC(=O)C)O,063905-15-7,-0.331463932,CC(=O)NC1CCCCC1OCC(O)CO
5368,B-11046,1-[5-(2-sulfosulfanylethylamino)pentoxy]isoquinoline,HCCCKSXKQMGUDF-UHFFFAOYSA-N,OS(=O)(=O)SCCNCCCCCOC1NCCC2C1CCCC2,041287-45-0,-2.869797096,O=S(=O)(O)SCCNCCCCCOC1NCCC2CCCCC21
5369,B-11048,4-[5-(4-dimethylamino-3.3-dimethyl-4-oxobutyl)-[1.3]thiazolo[5.4-d][1.3]thiazol-2-yl]-N.N.2.2-tetramethylbutanamide,YJQUNKOOBWNEAQ-UHFFFAOYSA-N,CN(C(=O)C(CCC1NC2C(S1)NC(S2)CCC(C(=O)N(C)C)(C)C)(C)C)C,033311-52-3,-5.143702662,CN(C)C(=O)C(C)(C)CCC1NC2SC(CCC(C)(C)C(=O)N(C)C)NC2S1
5370,B-11049,[2-(carbamoyloxymethyl)-2-methylpentyl] N-furan-2-ylcarbamate,MCRZDGWCWKQOMX-UHFFFAOYSA-N,CCCC(COC(=O)N)(COC(=O)NC1CCCO1)C,025384-86-5,-3.506361484,CCCC(C)(COC(N)=O)COC(=O)NC1CCCO1
5371,B-11050,1-methoxy-4-[4-(3-sulfosulfanylpropylamino)butyl]benzene,JKPNBDINHLNEKN-UHFFFAOYSA-N,COC1CCC(CC1)CCCCNCCCSS(=O)(=O)O,038914-74-8,-2.551305457,COC1CCC(CCCCNCCCSS(=O)(=O)O)CC1
5372,B-11051,4-[(1S)-2-(tert-butylamino)-1-hydroxyethyl]-2-(hydroxymethyl)phenol,NDAUXUAQIAJITI-GFCCVEGCSA-N,OCC1CC(CCC1O)[C@@H](CNC(C)(C)C)O,034271-50-6,-1.22,CC(C)(C)NCC(O)C1CCC(O)C(CO)C1
5373,B-11052,3-[bis(2-chloroethyl)amino]-4-methylbenzamide,JEPNDMLVRFWZTG-UHFFFAOYSA-N,ClCCN(C1CC(CCC1C)C(=O)N)CCCl,019768-73-1,-3.729488454,CC1CCC(C(N)=O)CC1N(CCCl)CCCl
5374,B-11053,3-aminoisoindol-1-one,MMBYJYAFFGKUDC-UHFFFAOYSA-N,O=C1N=C(C2C1CCCC2)N,014352-51-3,-1.687674593,NC1=NC(=O)C2CCCCC12
5375,B-11054,2-(4-ethylpiperazin-1-yl)-N-[(Z)-(5-nitrofuran-2-yl)methylideneamino]acetamide,JCZOOFVQWBRCAL-ZROIWOOFSA-N,CCN1CCN(CC1)CC(=O)N/N=C\C1CCC(O1)[N+](=O)[O-],033165-17-2,-2.942641706,CCN1CCN(CC(=O)NN=CC2CCC([N+](=O)[O-])O2)CC1
5376,B-11055,5.6.7.8-tetramethoxy-2-(4-methoxyphenyl)chromen-4-one,ULSUXBXHSYSGDT-UHFFFAOYSA-N,COC1CCC(CC1)C1CC(=O)C2C(O1)C(OC)C(C(C2OC)OC)OC,000481-53-8,-4.631458919,COC1CCC(C2CC(=O)C3C(OC)C(OC)C(OC)C(OC)C3O2)CC1
5377,B-11057,2-hydroxy-5-methoxybenzamide,VLSVEVCSHFHKEM-UHFFFAOYSA-N,COC1CCC(C(C1)C(=O)N)O,028534-37-4,-0.793390475,COC1CCC(O)C(C(N)=O)C1
5378,B-11058,5-iodo-2-[5-(2-sulfosulfanylethylamino)pentoxy]pyridine,IRGXGIZCHCTASM-UHFFFAOYSA-N,IC1CCC(NC1)OCCCCCNCCSS(=O)(=O)O,041287-07-4,-3.27673239,O=S(=O)(O)SCCNCCCCCOC1CCC(I)CN1