,C_ID,Name,InChIKey,SMILES,CAS,LogS,smiles_canon
5578,B-11308,N-(1.5-dimethyl-3-oxo-2-phenylpyrazol-4-yl)pyridine-3-carboxamide,BRZANEXCSZCZCI-UHFFFAOYSA-N,O=C(C1CCCNC1)NC1C(=O)N(N(C1C)C)C1CCCCC1,002139-47-1,-2.930922975,CC1C(NC(=O)C2CCCNC2)C(=O)N(C2CCCCC2)N1C
5579,B-11309,5-[(3S.5R.8R.9S.10S.11S.13R.14S.17R)-3.11.14-trihydroxy-10.13-dimethyl-12-oxo-2.3.4.5.6.7.8.9.11.15.16.17-dodecahydro-1H-cyclopenta[a]phenanthren-17-yl]pyran-2-one,JGDCRWYOMWSTFC-AZGSIFHYSA-N,O[C@H]1CC[C@]2([C@@H](C1)CC[C@@H]1[C@@H]2[C@H](O)C(=O)[C@]2([C@]1(O)CC[C@@H]2C1CCC(=O)OC1)C)C,000464-74-4,-3.473501578,CC12CCC(O)CC1CCC1C2C(O)C(=O)C2(C)C(C3CCC(=O)OC3)CCC12O
5580,B-11310,[(1R.2S.4R.5R.6R.7R.10S.11S.14S.16R)-14-hydroxy-7.11-dimethyl-6-(6-oxopyran-3-yl)-3-oxapentacyclo[8.8.0.02.4.02.7.011.16]octadecan-5-yl] acetate,SCULJPGYOQQXTK-OLRINKBESA-N,O[C@H]1CC[C@]2([C@@H](C1)CC[C@@H]1[C@@H]2CC[C@]2([C@]31O[C@@H]3[C@@H]([C@@H]2C1CCC(=O)OC1)OC(=O)C)C)C,000470-37-1,-4.050468086,CC(=O)OC1C(C2CCC(=O)OC2)C2(C)CCC3C(CCC4CC(O)CCC43C)C23OC13
5581,B-11311,N-hydroxy-2-(4-prop-2-ynoxyphenyl)acetamide,IMMGGYQQWAHCLJ-UHFFFAOYSA-N,C#CCOC1CCC(CC1)CC(=O)NO,023142-43-0,-1.761976516,C#CCOC1CCC(CC(=O)NO)CC1
5582,B-11312,4-Oxo-4-(phenylamino)butanoic acid,KTFGFGGLCMGYTP-UHFFFAOYSA-N,O=C(NC1CCCCC1)CCC(=O)O,000102-14-7,-1.861129981,O=C(O)CCC(=O)NC1CCCCC1
5583,B-11314,1-[4-[2-hydroxy-3-(4-phenylpiperazin-1-yl)propoxy]phenyl]propan-1-one,ZQPXSRTZFYHSFB-UHFFFAOYSA-N,CCC(=O)C1CCC(CC1)OCC(CN1CCN(CC1)C1CCCCC1)O,091315-34-3,-3.11004434,CCC(=O)C1CCC(OCC(O)CN2CCN(C3CCCCC3)CC2)CC1
5584,B-11315,3-[(Z)-(4-oxo-2-piperidin-1-yl-6.7.8.9-tetrahydropyrido[1.2-a]pyrimidin-3-yl)methylideneamino]-1.3-oxazolidin-2-one,WGPVGSNGYPUHBZ-PDGQHHTCSA-N,O=C1OCCN1/N=C\C1C(NC2N(C1=O)CCCC2)N1CCCCC1,035851-96-8,-3.230830093,O=C1OCCN1N=CC1C(=O)N2CCCCC2NC1N1CCCCC1
5585,B-11316,3-chloro-2-[3-(2-sulfosulfanylethylamino)propoxy]pyridine,QRMNMQPMRJCVMQ-UHFFFAOYSA-N,ClC1CCCNC1OCCCNCCSS(=O)(=O)O,041286-95-7,-1.119843656,O=S(=O)(O)SCCNCCCOC1NCCCC1Cl
5586,B-11317,2-[2-(4-dimethylaminophenyl)-1.3-benzothiazol-5-yl]acetic acid,BIRDTWYHBGEPKA-UHFFFAOYSA-N,OC(=O)CC1CCC2C(C1)NC(S2)C1CCC(CC1)N(C)C,036774-73-9,-4.110877573,CN(C)C1CCC(C2NC3CC(CC(=O)O)CCC3S2)CC1
5587,B-11318,2-(phenylmethylamino)butanedioic acid,RKSKSWSMXZYPFW-UHFFFAOYSA-N,OC(=O)C(CC(=O)O)NCC1CCCCC1,005555-22-6,-1.063191359,O=C(O)CC(NCC1CCCCC1)C(=O)O
5588,B-11319,2-(4-acetamidophenyl)acetic acid,MROJXXOCABQVEF-UHFFFAOYSA-N,OC(=O)CC1CCC(CC1)NC(=O)C,018699-02-0,-1.788943681,CC(=O)NC1CCC(CC(=O)O)CC1
5589,B-11320,3.4-dimethoxy-N-[2-[(4-methoxyphenyl)methyl]-3.4-dihydro-1H-isoquinolin-5-yl]benzamide,IZKCXJLBEGEZTQ-UHFFFAOYSA-N,COC1CCC(CC1)CN1CCC2C(C1)CCCC2NC(=O)C1CCC(C(C1)OC)OC,041957-48-6,-5.371188361,COC1CCC(CN2CCC3C(CCCC3NC(=O)C3CCC(OC)C(OC)C3)C2)CC1
5590,B-11321,(3S.4R.4aR.7S.7aR.12bS)-9-methoxy-3-methyl-3-oxido-2.4.4a.7.7a.13-hexahydro-1H-4.12-methanobenzofuro[3.2-e]isoquinolin-3-ium-7-ol,BDLSDHWCOJPHIE-KFUGMXNISA-N,COC1CCC2C3C1O[C@@H]1[C@@]43CC[N@@+]([C@H](C2)[C@@H]4C=C[C@@H]1O)([O-])C,003688-65-1,-2.899263396,COC1CCC2CC3C4C=CC(O)C5OC1C2C45CC[N+]3(C)[O-]
5591,B-11323,5-[(1R.2S.4R.6R.7R.10S.11R.14S.16S)-14.16-dihydroxy-7.11-dimethyl-3-oxapentacyclo[8.8.0.02.4.02.7.011.16]octadecan-6-yl]pyran-2-one,JMNQTHQLNRILMH-OBBGIPBRSA-N,O[C@H]1CC[C@]2([C@](C1)(O)CC[C@@H]1[C@@H]2CC[C@]2([C@]31O[C@@H]3C[C@@H]2C1CCC(=O)OC1)C)C,000470-42-8,-3.773315024,CC12CCC(O)CC1(O)CCC1C2CCC2(C)C(C3CCC(=O)OC3)CC3OC312
5592,B-11324,3-[bis(2-chloroethyl)amino]-4-methylbenzenesulfonic acid,DWUOZVCWMPJABS-UHFFFAOYSA-N,ClCCN(C1CC(CCC1C)S(=O)(=O)O)CCCl,019768-75-3,-4.373865909,CC1CCC(S(=O)(=O)O)CC1N(CCCl)CCCl
5593,B-11326,(2S.3aS.7aS)-1-[(2S)-2-[[(2S)-1-ethoxy-1-oxo-4-phenylbutan-2-yl]amino]propanoyl]-2.3.3a.4.5.6.7.7a-octahydroindole-2-carboxylic acid,VXFJYXUZANRPDJ-MQBSTWLZSA-N,CCOC(=O)[C@@H](N[C@H](C(=O)N1[C@H]2CCCC[C@H]2C[C@H]1C(=O)O)C)CCC1CCCCC1,080876-01-3,-5.588695581,CCOC(=O)C(CCC1CCCCC1)NC(C)C(=O)N1C(C(=O)O)CC2CCCCC21
5594,B-11328,5-oxo-N-(2-phenylcyclopropyl)pyrrolidine-2-carboxamide,UGSLDMJXBQKDCT-UHFFFAOYSA-N,O=C(C1CCC(=O)N1)NC1CC1C1CCCCC1,023887-48-1,-1.418963137,O=C1CCC(C(=O)NC2CC2C2CCCCC2)N1
5595,B-11330,6-(2-morpholin-4-ylethylamino)quinoline-5.8-dione,VSYMNYNQYZDAPD-UHFFFAOYSA-N,O=C1C(=CC(=O)C2C1CCCN2)NCCN1CCOCC1,035961-94-5,0.057509497,O=C1C(NCCN2CCOCC2)=CC(=O)C2NCCCC12
5596,B-11331,N-[[(1.5-dimethyl-3-oxo-2-phenylpyrazol-4-yl)-propan-2-ylamino]methyl]pyridine-3-carboxamide,MZQAQBDIKUFBSF-UHFFFAOYSA-N,O=C(C1CCCNC1)NCN(C1C(=O)N(N(C1C)C)C1CCCCC1)C(C)C,015387-10-7,-2.56213723,CC(C)N(CNC(=O)C1CCCNC1)C1C(=O)N(C2CCCCC2)N(C)C1C
5597,B-11332,[2-(4-butylsulfanylphenyl)-2-(carbamoyloxymethyl)butyl] carbamate,BUHTVBNGCWQMMA-UHFFFAOYSA-N,CCCCSC1CCC(CC1)C(COC(=O)N)(COC(=O)N)CC,025451-06-3,-5.014279239,CCCCSC1CCC(C(CC)(COC(N)=O)COC(N)=O)CC1
5598,B-11334,3-(3-butoxy-4-methoxyphenyl)-N-hydroxyprop-2-enamide,DDMYBPQSJMNVFE-UHFFFAOYSA-N,CCCCOC1CC(C=CC(=O)NO)CCC1OC,026228-16-0,-3.140450738,CCCCOC1CC(C=CC(=O)NO)CCC1OC
5599,B-11335,8-methoxy-6-nitronaphtho[2.1-g][1.3]benzodioxole-5-carboxylic acid,BBFQZRXNYIEMAW-UHFFFAOYSA-N,COC1CCCC2C1CC([N+](=O)[O-])C1C2C2OCOC2CC1C(=O)O,012770-90-0,-6.764096594,COC1CCCC2C1CC([N+](=O)[O-])C1C(C(=O)O)CC3OCOC3C21
5600,B-11337,4-(4-methoxynaphthalen-1-yl)-4-oxobutanoic acid,FHGJSJFIQNQBCK-UHFFFAOYSA-N,COC1CCC(C2C1CCCC2)C(=O)CCC(=O)O,003562-99-0,-2.326431736,COC1CCC(C(=O)CCC(=O)O)C2CCCCC12
5601,B-11339,1-(4-chlorophenyl)-3-(1.3-oxazol-2-yl)urea,PRHMYCNOWXYHEI-UHFFFAOYSA-N,O=C(NC1NCCO1)NC1CCC(CC1)Cl,035629-50-6,-3.027620181,O=C(NC1CCC(Cl)CC1)NC1NCCO1
5602,B-11340,(1R.9R.10R)-17-oxido-17-azoniatetracyclo[7.5.3.01.10.02.7]heptadeca-2(7).3.5-trien-4-ol,PYSLAXNKITVDGO-NUEKZKHPSA-N,OC1CCC2C(C1)[C@]13CCCC[C@H]3[C@@H](C2)[NH+](CC1)[O-],063868-06-4,-2.705463678,[O-][NH+]1CCC23CCCCC2C1CC1CCC(O)CC13
5603,B-11341,[(3S.5R.8R.9S.10S.13R.14S.16S.17R)-3.14-dihydroxy-10.13-dimethyl-17-(6-oxopyran-3-yl)-1.2.3.4.5.6.7.8.9.11.12.15.16.17-tetradecahydrocyclopenta[a]phenanthren-16-yl] acetate,VOZHMAYHYHEWBW-NVOOAVKYSA-N,O[C@H]1CC[C@]2([C@@H](C1)CC[C@@H]1[C@@H]2CC[C@]2([C@]1(O)C[C@@H]([C@@H]2C1CCC(=O)OC1)OC(=O)C)C)C,000471-95-4,-5.292486669,CC(=O)OC1CC2(O)C3CCC4CC(O)CCC4(C)C3CCC2(C)C1C1CCC(=O)OC1
5604,B-11342,2-[3-(2-sulfosulfanylethylamino)propoxy]quinoline,FXEOMSOMYPLDTM-UHFFFAOYSA-N,OS(=O)(=O)SCCNCCCOC1CCC2C(N1)CCCC2,041287-22-3,-1.826999106,O=S(=O)(O)SCCNCCCOC1CCC2CCCCC2N1
5605,B-11343,[4-butyl-5-oxo-1.2-di(phenyl)pyrazol-3-yl] 3.4.5-trimethoxybenzoate,LAVQJQXAUQINRC-UHFFFAOYSA-N,CCCCC1C(=O)N(N(C1OC(=O)C1CC(OC)C(C(C1)OC)OC)C1CCCCC1)C1CCCCC1,016006-74-9,-6.928139268,CCCCC1C(=O)N(C2CCCCC2)N(C2CCCCC2)C1OC(=O)C1CC(OC)C(OC)C(OC)C1
5606,B-11344,1-[2-[bis(aziridin-1-yl)phosphoryl]ethenyl]-3-(2.4-dimethylphenyl)urea,FSQCJCGRJQUHCA-UHFFFAOYSA-N,O=C(NC1CCC(CC1C)C)NC=CP(=O)(N1CC1)N1CC1,054948-25-3,-2.521524661,CC1CCC(NC(=O)NC=CP(=O)(N2CC2)N2CC2)C(C)C1
5607,B-11345,3-(2-chloro-7-hydroxyphenothiazin-10-yl)propanoic acid,WBNPMYJLGASBPI-UHFFFAOYSA-N,OC(=O)CCN1C2CCC(CC2SC2C1CC(Cl)CC2)O,040845-26-9,-5.618250583,O=C(O)CCN1C2CCC(O)CC2SC2CCC(Cl)CC21
5608,B-11346,2-Hydroxy-N-(4-hydroxyphenyl)benzamide,LGCMKPRGGJRYGM-UHFFFAOYSA-N,OC1CCC(CC1)NC(=O)C1CCCCC1O,000526-18-1,-2.849467917,O=C(NC1CCC(O)CC1)C1CCCCC1O
5609,B-11347,8-ethyl-5-oxo-2-pyrrolidin-1-ylpyrido[6.5-d]pyrimidine-6-carboxylic acid,RCIMBBZXSXFZBV-UHFFFAOYSA-N,CCN1CC(C(=O)O)C(=O)C2C1NC(NC2)N1CCCC1,019562-30-2,-3.664114181,CCN1CC(C(=O)O)C(=O)C2CNC(N3CCCC3)NC21
5610,B-11348,3-(4-butoxy-3-methoxyphenyl)-N-hydroxyprop-2-enamide,SHRQNPQSYFSSIN-UHFFFAOYSA-N,CCCCOC1CCC(CC1OC)C=CC(=O)NO,025356-84-7,-3.140450738,CCCCOC1CCC(C=CC(=O)NO)CC1OC
5611,B-11350,(2R.3R.4S.5R)-2-(6-chloropurin-9-yl)-5-(hydroxymethyl)oxolane-3.4-diol,XHRJGHCQQPETRH-KQYNXXCUSA-N,OC[C@H]1O[C@H]([C@@H]([C@@H]1O)O)N1CNC2C1NCNC2Cl,002004-06-0,-1.895092412,OCC1OC(N2CNC3C(Cl)NCNC32)C(O)C1O
5612,B-11351,(E)-1-[6-(2-dimethylaminoethoxy)-4.7-dimethoxy-1-benzofuran-5-yl]-3-(4-methoxyphenyl)prop-2-en-1-one,WKEFCGWXBSXUOD-DHZHZOJOSA-N,COC1C(C(=O)/C=C/C2CCC(CC2)OC)C(OCCN(C)C)C(C2C1CCO2)OC,026225-59-2,-4.458618446,COC1CCC(C=CC(=O)C2C(OC)C3CCOC3C(OC)C2OCCN(C)C)CC1
5613,B-11352,N-[4-[1-(4-methylphenyl)sulfanyl-2-nitroethyl]phenyl]acetamide,FEYDRETXYFWGJR-UHFFFAOYSA-N,[O-][N+](=O)CC(C1CCC(CC1)NC(=O)C)SC1CCC(CC1)C,020404-97-1,-4.99141278,CC(=O)NC1CCC(C(C[N+](=O)[O-])SC2CCC(C)CC2)CC1
5614,B-11353,6-[4-[3.3.3-tri(phenyl)propyl]piperazin-1-yl]pyridazin-3-amine,XMLGEAMAMPIBRC-UHFFFAOYSA-N,NC1CCC(NN1)N1CCN(CC1)CCC(C1CCCCC1)(C1CCCCC1)C1CCCCC1,036524-71-7,-6.573646978,NC1CCC(N2CCN(CCC(C3CCCCC3)(C3CCCCC3)C3CCCCC3)CC2)NN1
5615,B-11354,4-Chloro-N-methyl-3-(methylsulfamoyl)benzamide,REQFWARMBJWJAQ-UHFFFAOYSA-N,CNC(=O)C1CCC(C(C1)S(=O)(=O)NC)Cl,003688-85-5,-1.706823613,CNC(=O)C1CCC(Cl)C(S(=O)(=O)NC)C1
5616,B-11355,N-[2-nitroso-1.2-di(phenyl)ethenyl]hydroxylamine,ZXBLMXOUGVRCCH-BUHFOSPRSA-N,O=N/C(=C(\C1CCCCC1)/NO)/C1CCCCC1,000522-34-9,-5.413043506,O=NC(=C(NO)C1CCCCC1)C1CCCCC1
5617,B-11357,5-chloro-2-[5-(2-sulfosulfanylethylamino)pentoxy]pyridine,JTRXPPVLPJRQIF-UHFFFAOYSA-N,ClC1CCC(NC1)OCCCCCNCCSS(=O)(=O)O,040771-31-1,-2.164455682,O=S(=O)(O)SCCNCCCCCOC1CCC(Cl)CN1
5618,B-11360,11-[2-(4-methylpiperazin-1-yl)acetyl]-5H-pyrido[2.3-b][1.4]benzodiazepin-6-one,RMHMFHUVIITRHF-UHFFFAOYSA-N,CN1CCN(CC1)CC(=O)N1C2CCCCC2C(=O)[NH]C2C1NCCC2,028797-61-7,-4.311043821,CN1CCN(CC(=O)N2C3CCCCC3C(=O)NC3CCCNC32)CC1
5619,B-11362,5-(hydroxymethyl)-6-methyl-1H-pyrimidine-2.4-dione,XBAVGYMDOXCWQU-UHFFFAOYSA-N,OCC1C(C)[NH]C(=O)[NH]C1=O,000147-61-5,-0.594070609,CC1NC(=O)NC(=O)C1CO
5620,B-11363,(E)-3-(4-ethoxy-3-methoxyphenyl)-N-hydroxyprop-2-enamide,WNFZOYNOAJBUIG-FNORWQNLSA-N,CCOC1CCC(CC1OC)/C=C/C(=O)NO,026228-02-4,-2.09875357,CCOC1CCC(C=CC(=O)NO)CC1OC
5621,B-11364,5-(2-dimethylaminoethyl)-3-ethylsulfonyl-11-methylbenzo[b][1.4]benzodiazepin-6-one,ZIQFOGAGKMHTRM-UHFFFAOYSA-N,CCS(=O)(=O)C1CCC2C(C1)N(CCN(C)C)C(=O)C1C(N2C)CCCC1,022797-20-2,-5.285073397,CCS(=O)(=O)C1CCC2C(C1)N(CCN(C)C)C(=O)C1CCCCC1N2C
5622,B-11365,2-amino-5-chloro-1.3-benzoxazole-7-sulfonic acid,GBNSTFYSASRNQI-UHFFFAOYSA-N,ClC1CC2NC(OC2C(C1)S(=O)(=O)O)N,064037-29-2,-2.079595394,NC1NC2CC(Cl)CC(S(=O)(=O)O)C2O1
5623,B-11366,methyl N-(6-propoxy-1H-benzimidazol-2-yl)carbamate,RAOCRURYZCVHMG-UHFFFAOYSA-N,CCCOC1CCC2C(C1)[NH]C(N2)NC(=O)OC,020559-55-1,-4.48695356,CCCOC1CCC2NC(NC(=O)OC)NC2C1
5624,B-11367,1.2-benzoxazol-3-ylmethanesulfonamide,UBQNRHZMVUUOMG-UHFFFAOYSA-N,NS(=O)(=O)CC1NOC2C1CCCC2,068291-97-4,-2.423702483,NS(=O)(=O)CC1NOC2CCCCC12
5625,B-11368,4-amino-N-(1.2.4-triazol-1-yl)benzamide,IANLIXWJIDFXSI-UHFFFAOYSA-N,O=C(C1CCC(CC1)N)NN1NCNC1,063886-96-4,-1.419754896,NC1CCC(C(=O)NN2CNCN2)CC1
5626,B-11370,[3-(diethylcarbamoyl)-9.10-dimethoxy-2.3.4.6.7.11b-hexahydro-1H-pyrido[2.1-a]isoquinolin-2-yl] acetate,JSZILQVIPPROJI-UHFFFAOYSA-N,CCN(C(=O)C1CN2CCC3C(C2CC1OC(=O)C)CC(C(C3)OC)OC)CC,023844-24-8,-3.813834431,CCN(CC)C(=O)C1CN2CCC3CC(OC)C(OC)CC3C2CC1OC(C)=O
5627,B-11371,bis(2-propoxyethyl) 2.6-dimethyl-4-(3-nitrophenyl)-1.4-dihydropyridine-3.5-dicarboxylate,VZWXXKDFACOXNT-UHFFFAOYSA-N,CCCOCCOC(=O)C1=C(C)NC(=C(C1C1CCCC(C1)[N+](=O)[O-])C(=O)OCCOCCC)C,022609-73-0,-5.500354247,CCCOCCOC(=O)C1=C(C)NC(C)=C(C(=O)OCCOCCC)C1C1CCCC([N+](=O)[O-])C1
5628,B-11372,(E)-N-(2-methylbut-3-yn-2-yl)-3-(3.4.5-trimethoxyphenyl)prop-2-enamide,APIXMWJMJACVBU-CMDGGOBGSA-N,C#CC(NC(=O)/C=C/C1CC(OC)C(C(C1)OC)OC)(C)C,022198-93-2,-3.018062463,C#CC(C)(C)NC(=O)C=CC1CC(OC)C(OC)C(OC)C1
5629,B-11373,(2S.3aS.6aS)-1-[(2S)-2-[[(2S)-1-ethoxy-1-oxo-4-phenylbutan-2-yl]amino]propanoyl]-3.3a.4.5.6.6a-hexahydro-2H-cyclopenta[d]pyrrole-2-carboxylic acid,HDACQVRGBOVJII-JBDAPHQKSA-N,CCOC(=O)[C@@H](N[C@H](C(=O)N1[C@H]2CCC[C@H]2C[C@H]1C(=O)O)C)CCC1CCCCC1,087333-19-5,-4.572358917,CCOC(=O)C(CCC1CCCCC1)NC(C)C(=O)N1C(C(=O)O)CC2CCCC21
5630,B-11375,4-methyl-2-[6-(2-sulfosulfanylethylamino)hexoxy]quinoline,XXUJCIFAKQDYHT-UHFFFAOYSA-N,CC1CC(OCCCCCCNCCSS(=O)(=O)O)NC2C1CCCC2,041287-40-5,-3.960981079,CC1CC(OCCCCCCNCCSS(=O)(=O)O)NC2CCCCC12
5631,B-11377,(6aR.9R)-N-[(2S)-1-hydroxybutan-2-yl]-7-methyl-6.6a.8.9-tetrahydro-4H-indolo[4.3-fg]quinoline-9-carboxamide,UNBRKDKAWYKMIV-QWQRMKEZSA-N,CC[C@H](NC(=O)[C@H]1CN(C)[C@H]2C(=C1)C1CCCC3C1C(C2)C[NH]3)CO,029477-86-9,-2.691283692,CCC(CO)NC(=O)C1C=C2C3CCCC4NCC(CC2N(C)C1)C43
5632,B-11378,3H-imidazole-4-carboxylic acid,NKWCGTOZTHZDHB-UHFFFAOYSA-N,OC(=O)C1CNC[NH]1,001072-84-0,0.029622126,O=C(O)C1CNCN1
5633,B-11380,4-nitro-N-(2H-tetrazol-5-yl)benzamide,ODLUTVBIDGJWAA-UHFFFAOYSA-N,O=C(C1CCC(CC1)[N+](=O)[O-])NC1N[NH]NN1,006229-22-7,-2.184849098,O=C(NC1NNNN1)C1CCC([N+](=O)[O-])CC1
5634,B-11381,3.3-bis(4-hydroxyphenyl)-1H-indol-2-one,SJDACOMXKWHBOW-UHFFFAOYSA-N,OC1CCC(CC1)C1(C2CCC(CC2)O)C(=O)NC2C1CCCC2,000125-13-3,-3.827588279,O=C1NC2CCCCC2C1(C1CCC(O)CC1)C1CCC(O)CC1
5635,B-11382,2-[(2.4-dinitrophenyl)amino]-4-methylsulfanylbutanoic acid,DOHZIJDJOSBJFP-UHFFFAOYSA-N,CSCCC(C(=O)O)NC1CCC(CC1[N+](=O)[O-])[N+](=O)[O-],001655-53-4,-2.8859401,CSCCC(NC1CCC([N+](=O)[O-])CC1[N+](=O)[O-])C(=O)O
5636,B-11384,N-[5-chloro-4-[(4-chlorophenyl)-cyanomethyl]-2-methylphenyl]-2-hydroxy-3.5-diiodobenzamide,JMPFSEBWVLAJKM-UHFFFAOYSA-N,N#CC(C1CC(C)C(CC1Cl)NC(=O)C1CC(I)CC(C1O)I)C1CCC(CC1)Cl,057808-65-8,-10.34734573,CC1CC(C(C#N)C2CCC(Cl)CC2)C(Cl)CC1NC(=O)C1CC(I)CC(I)C1O
5637,B-11385,[3-carbamoyloxy-2.2-di(phenyl)propyl] carbamate,YAMNETATHGQXBZ-UHFFFAOYSA-N,NC(=O)OCC(C1CCCCC1)(C1CCCCC1)COC(=O)N,025451-78-9,-3.130045109,NC(=O)OCC(COC(N)=O)(C1CCCCC1)C1CCCCC1
5638,B-11386,(1S.14S)-9.20.21.25-tetramethoxy-15.30-dimethyl-7.23-dioxa-15.30-diazaheptacyclo[22.6.2.23.6.18.12.114.18.027.31.022.33]hexatriaconta-3(36).4.6(35).8.10.12(34).18.20.22(33).24.26.31-dodecaene,WVTKBKWTSCPRNU-KYJUHHDHSA-N,COC1C(OC)CC2C3C1OC1CC4C(CC1OC)CCN([C@H]4CC1CCC(OC4CC(C[C@@H]3N(CC2)C)CCC4OC)CC1)C,023495-89-8,-9.864384176,COC1CCC2CC1OC1CCC(CC1)CC1C3CC(OC4C(OC)C(OC)CC5CCN(C)C(C2)C54)C(OC)CC3CCN1C
5639,B-11387,4-morpholin-4-yl-2-(2-morpholin-4-ylethyl)-2-naphthalen-1-ylbutanamide,ICYRROBWADKOAL-UHFFFAOYSA-N,NC(=O)C(C1CCCC2C1CCCC2)(CCN1CCOCC1)CCN1CCOCC1,002817-59-6,-3.236020473,NC(=O)C(CCN1CCOCC1)(CCN1CCOCC1)C1CCCC2CCCCC21
5640,B-11388,5-bromo-2-[4-(2-sulfosulfanylethylamino)butoxy]pyridine,NMTMZLCCIHLJED-UHFFFAOYSA-N,BrC1CCC(NC1)OCCCCNCCSS(=O)(=O)O,041286-99-1,-2.17585573,O=S(=O)(O)SCCNCCCCOC1CCC(Br)CN1
5641,B-11390,9-[4-(4-chlorophenyl)-4-oxobutyl]-1-oxa-3.9-diazaspiro[5.5]undecan-2-one,RHFVHKHSFGQHJO-UHFFFAOYSA-N,O=C1NCCC2(O1)CCN(CC2)CCCC(=O)C1CCC(CC1)Cl,054981-19-0,-3.532275579,O=C1NCCC2(CCN(CCCC(=O)C3CCC(Cl)CC3)CC2)O1
5642,B-11391,4-amino-N-(4-methylpyridin-2-yl)benzamide,DZNHKWPUFQKTRB-UHFFFAOYSA-N,NC1CCC(CC1)C(=O)NC1NCCC(C1)C,036845-05-3,-2.3112134,CC1CCNC(NC(=O)C2CCC(N)CC2)C1
5643,B-11392,5-methyl-2-(2-morpholin-4-ylethyl)-2-naphthalen-1-ylhex-4-enamide,IHFBWHHINXWEGS-UHFFFAOYSA-N,CC(=CCC(C1CCCC2C1CCCC2)(C(=O)N)CCN1CCOCC1)C,050765-92-9,-5.039035097,CC(C)=CCC(CCN1CCOCC1)(C(N)=O)C1CCCC2CCCCC21
5644,B-11393,1-[4-[2-hydroxy-3-(4-phenylpiperazin-1-yl)propoxy]phenyl]ethanone,HCECCXWIJRUZPU-UHFFFAOYSA-N,OC(CN1CCN(CC1)C1CCCCC1)COC1CCC(CC1)C(=O)C,063990-49-8,-2.588133899,CC(=O)C1CCC(OCC(O)CN2CCN(C3CCCCC3)CC2)CC1
5645,B-11394,N-[(Z)-(5-nitrofuran-2-yl)methylideneamino]-2-(4-propylpiperazin-1-yl)acetamide,XNTLMQPDSQCANY-GDNBJRDFSA-N,CCCN1CCN(CC1)CC(=O)N/N=C\C1CCC(O1)[N+](=O)[O-],033165-18-3,-3.464353916,CCCN1CCN(CC(=O)NN=CC2CCC([N+](=O)[O-])O2)CC1
5646,B-11396,5-methyl-N'-(1-phenylpropan-2-yl)-1.2-oxazole-3-carbohydrazide,BYBUKOLWVLGTJF-UHFFFAOYSA-N,CC(CC1CCCCC1)NNC(=O)C1NOC(C1)C,060789-89-1,-2.803157411,CC(CC1CCCCC1)NNC(=O)C1CC(C)ON1
5647,B-11397,6-methoxy-4-methyl-2-[2-(2-sulfosulfanylethylamino)ethoxy]quinoline,SEKQJFKGECWXEL-UHFFFAOYSA-N,COC1CCC2C(C1)C(C)CC(N2)OCCNCCSS(=O)(=O)O,041287-27-8,-2.162832689,COC1CCC2NC(OCCNCCSS(=O)(=O)O)CC(C)C2C1
5648,B-11398,4-[[2-(hydroxymethyl)-2-methylpentoxy]carbonylamino]benzoic acid,GBHPLASTJYCUFJ-UHFFFAOYSA-N,CCCC(COC(=O)NC1CCC(CC1)C(=O)O)(CO)C,025384-43-4,-3.686411324,CCCC(C)(CO)COC(=O)NC1CCC(C(=O)O)CC1
5649,B-11399,N2.N2.N4.N4.N6.N6-hexakis(methoxymethyl)-1.3.5-triazine-2.4.6-triamine,BNCADMBVWNPPIZ-UHFFFAOYSA-N,COCN(C1NC(NC(N1)N(COC)COC)N(COC)COC)COC,066565-50-2,-3.418369159,COCN(COC)C1NC(N(COC)COC)NC(N(COC)COC)N1
5650,B-11400,2-(3-chloro-4-prop-2-ynoxyphenyl)-N-hydroxyacetamide,MNJRLBZACAATFN-UHFFFAOYSA-N,C#CCOC1CCC(CC1Cl)CC(=O)NO,036072-88-5,-2.562682655,C#CCOC1CCC(CC(=O)NO)CC1Cl
5651,B-11401,5-[(3S.5S.8R.9S.10R.13R.14S.17R)-3.5.14-trihydroxy-10.13-dimethyl-2.3.4.6.7.8.9.11.12.15.16.17-dodecahydro-1H-cyclopenta[a]phenanthren-17-yl]pyran-2-one,PBSOJKPTQWWJJD-ZBDZJSKLSA-N,O[C@H]1CC[C@]2([C@](C1)(O)CC[C@@H]1[C@@H]2CC[C@]2([C@]1(O)CC[C@@H]2C1CCC(=O)OC1)C)C,000472-26-4,-3.768475227,CC12CCC(O)CC1(O)CCC1C2CCC2(C)C(C3CCC(=O)OC3)CCC12O
5652,B-11402,9-(2-sulfosulfanylethylamino)acridine,LBVWPKTYUAVUEG-UHFFFAOYSA-N,OS(=O)(=O)SCCNC1C2CCCCC2NC2C1CCCC2,027976-25-6,-6.136886818,O=S(=O)(O)SCCNC1C2CCCCC2NC2CCCCC21
5653,B-11403,N-[4-(2.3-dihydroxybutoxy)phenyl]acetamide,OBNUTEJYDRDZQQ-UHFFFAOYSA-N,CC(=O)NC1CCC(CC1)OCC(C(O)C)O,063905-27-1,-0.931732033,CC(=O)NC1CCC(OCC(O)C(C)O)CC1
5654,B-11405,(2R)-2-[(4-bromophenyl)sulfonylamino]-3-phenylpropanoic acid,YYNNRJWNBXEQTP-CQSZACIVSA-N,OC(=O)[C@H](NS(=O)(=O)C1CCC(CC1)Br)CC1CCCCC1,040279-98-9,-4.258271222,O=C(O)C(CC1CCCCC1)NS(=O)(=O)C1CCC(Br)CC1
5655,B-11406,1-[2-[bis(aziridin-1-yl)phosphoryl]ethenyl]-3-(4-iodophenyl)urea,IJWNKPCTJRPNLS-UHFFFAOYSA-N,O=C(NC1CCC(CC1)I)NC=CP(=O)(N1CC1)N1CC1,054948-28-6,-3.295022194,O=C(NC=CP(=O)(N1CC1)N1CC1)NC1CCC(I)CC1
5656,B-11407,bis(3-nitrophenyl)phosphinic acid,JLEGDNVOQSBHTR-UHFFFAOYSA-N,[O-][N+](=O)C1CCCC(C1)P(=O)(C1CCCC(C1)[N+](=O)[O-])O,018593-20-9,-3.070511615,O=[N+]([O-])C1CCCC(P(=O)(O)C2CCCC([N+](=O)[O-])C2)C1
5657,B-11408,(10S.13S)-5-[(3R)-3.7-dimethylocta-1.6-dien-3-yl]-13-(hydroxymethyl)-9-methyl-10-propan-2-yl-3.9.12-triazatricyclo[6.6.1.04.15]pentadeca-1.4.6.8(15)-tetraen-11-one,KISDGNGREAJPQR-OICBGKIFSA-N,OC[C@H]1NC(=O)[C@H](C(C)C)N(C2C3C(C1)C[NH]C3C(CC2)[C@](CCC=C(C)C)(C=C)C)C,056645-57-9,-8.947377785,C=CC(C)(CCC=C(C)C)C1CCC2C3C(CNC31)CC(CO)NC(=O)C(C(C)C)N2C
5658,B-11409,2-[(2Z)-2-(5-methyl-6-oxo-1-cyclohexa-2.4-dienylidene)-3H-1.3-benzothiazol-6-yl]acetic acid,KUINUAAHDPVJRS-WJDWOHSUSA-N,OC(=O)CC1CCC2C(C1)S/C(=C\1/C=CC=C(C1=O)C)/[NH]2,036782-41-9,-3.342631635,CC1=CC=CC(=C2NC3CCC(CC(=O)O)CC3S2)C1=O
5659,B-11410,1-[(2R.3R.4S.5R)-3.4-dihydroxy-5-methyloxolan-2-yl]-5-fluoropyrimidine-2.4-dione,ZWAOHEXOSAUJHY-ZIYNGMLESA-N,C[C@H]1O[C@H]([C@@H]([C@@H]1O)O)N1CC(F)C(=O)[NH]C1=O,003094-09-5,-0.251713198,CC1OC(N2CC(F)C(=O)NC2=O)C(O)C1O
5660,B-11411,[4-[(2-chloroacetyl)amino]phenyl]arsonic acid,BWPMHDNLIGQVLN-UHFFFAOYSA-N,ClCC(=O)NC1CCC(CC1)[As](=O)(O)O,005425-62-7,-1.100303971,O=C(CCl)NC1CCC([As](=O)(O)O)CC1
5661,B-11414,5-[[5-hydroxy-4-(hydroxymethyl)-6-methylpyridin-3-yl]methyldisulfanylmethyl]-4-(hydroxymethyl)-2-methylpyridin-3-ol,SIXLXDIJGIWWFU-UHFFFAOYSA-N,OCC1C(CSSCC2CNC(C(C2CO)O)C)CNC(C1O)C,001098-97-1,-3.801623703,CC1NCC(CSSCC2CNC(C)C(O)C2CO)C(CO)C1O
5662,B-11415,(2S)-3-[4-[bis(2-chloroethyl)amino]phenyl]-2-formamidopropanoic acid,ZPOLNCDBPYJDSE-ZDUSSCGKSA-N,ClCCN(C1CCC(CC1)C[C@@H](C(=O)O)NC=O)CCCl,026367-45-3,-2.859958905,O=CNC(CC1CCC(N(CCCl)CCCl)CC1)C(=O)O
5663,B-11416,2-[4-(3.7-dimethylocta-2.6-dienyl)piperazin-1-yl]-N-[(5-nitrofuran-2-yl)methylideneamino]acetamide,GUJKBBOGALTPCN-UHFFFAOYSA-N,O=C(CN1CCN(CC1)CC=C(CCC=C(C)C)C)NN=CC1CCC(O1)[N+](=O)[O-],033165-28-5,-5.503395597,CC(C)=CCCC(C)=CCN1CCN(CC(=O)NN=CC2CCC([N+](=O)[O-])O2)CC1
5664,B-11417,[2.4.6-trioxo-5-(1-phenylethyl)-1.3-diazinan-5-yl] acetate,KLPVACBCXCZPDM-UHFFFAOYSA-N,CC(C1(OC(=O)C)C(=O)NC(=O)NC1=O)C1CCCCC1,037431-37-1,-3.278118188,CC(=O)OC1(C(C)C2CCCCC2)C(=O)NC(=O)NC1=O
5665,B-11418,2-[phenyl-(phenylamino)carbamoyl]hexanoic acid,FLWFHHFTIRLFPV-UHFFFAOYSA-N,CCCCC(C(=O)N(C1CCCCC1)NC1CCCCC1)C(=O)O,003583-64-0,-4.147135117,CCCCC(C(=O)O)C(=O)N(NC1CCCCC1)C1CCCCC1
5666,B-11419,2-[2-[1-(4-chlorobenzoyl)-5-methoxy-2-methylindol-3-yl]acetyl]oxyacetic acid,FSQKKOOTNAMONP-UHFFFAOYSA-N,COC1CCC2C(C1)C(CC(=O)OCC(=O)O)C(N2C(=O)C1CCC(CC1)Cl)C,053164-05-9,-5.094905185,COC1CCC2C(C1)C(CC(=O)OCC(=O)O)C(C)N2C(=O)C1CCC(Cl)CC1