,C_ID,Name,InChIKey,SMILES,CAS,LogS,smiles_canon
804,B-3580,1.3-Dioxane. 5-methyl-2-(2-methylpropyl)-cis-,MBEPJPZPFKXSPV-DTORHVGOSA-N,CC(C)C[C@@H]1OC[C@H](C)CO1,166301-22-0,-1.766346983,CC(C)CC1OCC(C)CO1
805,B-3587,2.6-di(propan-2-yl)naphthalene,GWLLTEXUIOFAFE-UHFFFAOYSA-N,CC(C)C1=CC2=C(C=C1)C=C(C=C2)C(C)C,024157-81-1,-4.285626856,CC(C)c1ccc2cc(C(C)C)ccc2c1
806,B-3589,PENTACHLORODIBENZO-P-DIOXIN,LNWDBNKKBLRAMH-UHFFFAOYSA-N,C1=CC2=C(C(=C1)Cl)OC3=C(O2)C(=C(C(=C3Cl)Cl)Cl)Cl,036088-22-9,-9.472798307,Clc1cccc2c1Oc1c(Cl)c(Cl)c(Cl)c(Cl)c1O2
807,B-3595,HEXACHLORODIBENZO-P-DIOXIN,YCLUIPQDHHPDJJ-UHFFFAOYSA-N,C1=C2C(=C(C(=C1Cl)Cl)Cl)OC3=CC(=C(C(=C3O2)Cl)Cl)Cl,034465-46-8,-10.98996635,Clc1cc2c(c(Cl)c1Cl)Oc1cc(Cl)c(Cl)c(Cl)c1O2
808,B-3602,2.6-DICHLORONAPHTHALENE,YCFUHBHONRJFHI-UHFFFAOYSA-N,C1=CC2=C(C=CC(=C2)Cl)C=C1Cl,002065-70-5,-6.562200003,Clc1ccc2cc(Cl)ccc2c1
809,B-3606,3-TOLYL  ISOTHIOCYANATE,BDPQUWSFKCFOST-UHFFFAOYSA-N,CC1=CC(=CC=C1)N=C=S,000621-30-7,-3.85,Cc1cccc(N=C=S)c1
810,B-3608,2.6-Dimethyl-4-tridecylmorpholine,YTOPFCCWCSOHFV-UHFFFAOYSA-N,CCCCCCCCCCCCCN1CC(OC(C1)C)C,024602-86-6,-5.432128151,CCCCCCCCCCCCCN1CC(C)OC(C)C1
811,B-3613,6.10-Dioxaspiro[4.5]decane. 8.8-dimethyl-7-(1-methylethyl)-,NKDJGNROVOPIGT-UHFFFAOYSA-N,CC(C)C1C(COC2(O1)CCCC2)(C)C,062406-73-9,-3.524240498,CC(C)C1OC2(CCCC2)OCC1(C)C
812,B-3620,ACETYL  FLUORIDE,JUCMRTZQCZRJDC-UHFFFAOYSA-N,CC(=O)F,000557-99-3,-3.094,CC(=O)F
813,B-3631,3-Bromoanisole,PLDWAJLZAAHOGG-UHFFFAOYSA-N,COC1=CC(=CC=C1)Br,002398-37-0,-3.12,COc1cccc(Br)c1
814,B-3649,3.5-Dichlorodiphenyl ether,LEKOWSSKXYFERR-UHFFFAOYSA-N,C1=CC=C(C=C1)OC2=CC(=CC(=C2)Cl)Cl,024910-68-7,-5.0605,Clc1cc(Cl)cc(Oc2ccccc2)c1
815,B-3662,4-BROMOANISOLE,QJPJQTDYNZXKQF-UHFFFAOYSA-N,COC1=CC=C(C=C1)Br,000104-92-7,-3.02,COc1ccc(Br)cc1
816,B-3673,(2R.3S)-2-decyl-3-(5-methylhexyl)oxirane,HFOFYNMWYRXIBP-MOPGFXCFSA-N,CCCCCCCCCC[C@@H]1O[C@H]1CCCCC(C)C,029804-22-6,-8.172278072,CCCCCCCCCCC1OC1CCCCC(C)C
817,B-3674,Methyl trimethylacetate,CNMFHDIDIMZHKY-UHFFFAOYSA-N,CC(C)(C)C(=O)OC,000598-98-1,-1.34,COC(=O)C(C)(C)C
818,B-3678,2.3.4.5.6-Pentachloroaniline,KHCZSJXTDDHLGJ-UHFFFAOYSA-N,C1(=C(C(=C(C(=C1Cl)Cl)Cl)Cl)Cl)N,000527-20-8,-6.946703566,Nc1c(Cl)c(Cl)c(Cl)c(Cl)c1Cl
819,B-3711,1-[3-(4-tert-butylphenyl)-2-methylpropyl]piperidine,MGNFYQILYYYUBS-UHFFFAOYSA-N,CC(CC1=CC=C(C=C1)C(C)(C)C)CN2CCCCC2,067306-00-7,-2.712618893,CC(Cc1ccc(C(C)(C)C)cc1)CN1CCCCC1
820,B-3729,1.3-dichloro-5-(3-chlorophenyl)benzene,RIBGNAJQTOXRDK-UHFFFAOYSA-N,C1=CC(=CC(=C1)Cl)C2=CC(=CC(=C2)Cl)Cl,012674-11-2,-5.787579742,Clc1cccc(-c2cc(Cl)cc(Cl)c2)c1
821,B-3734,ISOPRORYL  BUTYRATE,FFOPEPMHKILNIT-UHFFFAOYSA-N,CCCC(=O)OC(C)C,000638-11-9,-1.94,CCCC(=O)OC(C)C
822,B-3739,ISOPENTYL  PROPIONATE,XAOGXQMKWQFZEM-UHFFFAOYSA-N,CCC(=O)OCCC(C)C,000105-68-0,-2.870071232,CCC(=O)OCCC(C)C
823,B-3742,2.3.5-Trichlorodiphenyl ether,MDSPKCWGOVVFJD-UHFFFAOYSA-N,C1=CC=C(C=C1)OC2=C(C(=CC(=C2)Cl)Cl)Cl,162853-24-9,-5.1891,Clc1cc(Cl)c(Cl)c(Oc2ccccc2)c1
824,B-3744,Propyl dodecanoate,FTBUKOLPOATXGV-UHFFFAOYSA-N,CCCCCCCCCCCC(=O)OCCC,003681-78-5,-6.280000001,CCCCCCCCCCCC(=O)OCCC
825,B-3763,Oct-1-en-3-ol,VSMOENVRRABVKN-MRVPVSSYSA-N,CCCCC[C@H](O)C=C,003391-86-4,-1.844062095,C=CC(O)CCCCC
826,B-3776,4-BROMODIPHENYL  ETHER,JDUYPUMQALQRCN-UHFFFAOYSA-N,BrC1=CC=C(OC2=CC=CC=C2)C=C1,000101-55-3,-4.714,Brc1ccc(Oc2ccccc2)cc1
827,B-3794,BUTYL  LAURATE,NDKYEUQMPZIGFN-UHFFFAOYSA-N,CCCCCCCCCCCC(=O)OCCCC,000106-18-3,-6.770000004,CCCCCCCCCCCC(=O)OCCCC
828,B-3825,(E)-8-Dodecenyl acetate,SUCYDSJQVVGOIW-AATRIKPKSA-N,CCC/C=C/CCCCCCCOC(=O)C,038363-29-0,-4.614433542,CCCC=CCCCCCCCOC(C)=O
829,B-3829,2.4-Diisocyanato-1-methylbenzene,DVKJHBMWWAPEIU-UHFFFAOYSA-N,CC1=C(C=C(C=C1)N=C=O)N=C=O,026471-62-5,-3.66575708,Cc1ccc(N=C=O)cc1N=C=O
830,B-3830,Codlelure,CSWBSLXBXRFNST-MQQKCMAXSA-N,C/C=C/C=C/CCCCCCCO,033956-49-9,-3.854258876,CC=CC=CCCCCCCCO
831,B-3833,2.3'.4-Trichlorodiphenyl ether,BJFOCMRBCBZFJT-UHFFFAOYSA-N,C1=CC(=CC(=C1)Cl)OC2=C(C=C(C=C2)Cl)Cl,155999-93-2,-5.4414,Clc1cccc(Oc2ccc(Cl)cc2Cl)c1
832,B-3836,ETHYL  LAURATE,MMXKVMNBHPAILY-UHFFFAOYSA-N,CCCCCCCCCCCC(=O)OCC,000106-33-2,-5.8,CCCCCCCCCCCC(=O)OCC
833,B-3839,2-CHLOROETHYL  ETHYL  ETHER,GPTVQTPMFOLLOA-UHFFFAOYSA-N,CCOCCCl,000628-34-2,-0.92,CCOCCCl
834,B-3840,8:2 FTOH,FLXYIZWPNQYPIT-UHFFFAOYSA-N,C(CO)C(C(C(C(C(C(C(C(C(C(F)(F)F)(F)F)(F)F)(F)F)(F)F)(F)F)(F)F)(F)F)(F)F)(F)F,000865-86-1,-7.70999213,OCCC(F)(F)C(F)(F)C(F)(F)C(F)(F)C(F)(F)C(F)(F)C(F)(F)C(F)(F)C(F)(F)C(F)(F)F
835,B-3848,N.N-dimethyltrithian-5-amine,DNVLJEWNNDHELH-UHFFFAOYSA-N,CN(C)C1CSSSC1,031895-21-3,-0.334187022,CN(C)C1CSSSC1
836,B-3851,2-Bromoanisole,HTDQSWDEWGSAMN-UHFFFAOYSA-N,COC1=CC=CC=C1Br,000578-57-4,-2.58,COc1ccccc1Br
837,B-3861,3-METHOXYPHENYL  ISOTHIOCYANATE,WHBYCPUKGYEYFU-UHFFFAOYSA-N,COC1=CC=CC(=C1)N=C=S,003125-64-2,-3.57,COc1cccc(N=C=S)c1
838,B-3862,Butyl octadecanoate,ULBTUVJTXULMLP-UHFFFAOYSA-N,CCCCCCCCCCCCCCCCCC(=O)OCCCC,000123-95-5,-2.301780931,CCCCCCCCCCCCCCCCCC(=O)OCCCC
839,B-3863,(Z)-tetradec-11-en-1-ol,YGHAIPJLMYTNAI-ARJAWSKDSA-N,CC/C=C\CCCCCCCCCCO,034010-15-6,-4.725042583,CCC=CCCCCCCCCCCO
840,B-3864,1.2.3-THIADIAZOLE,UGUHFDPGDQDVGX-UHFFFAOYSA-N,C1=CSN=N1,000288-48-2,0.5878,c1csnn1
841,B-3868,Methyl tetradecanoate,ZAZKJZBWRNNLDS-UHFFFAOYSA-N,CCCCCCCCCCCCCC(=O)OC,000124-10-7,-6.650000004,CCCCCCCCCCCCCC(=O)OC
842,B-3873,Undecan-2-one,KYWIYKKSMDLRDC-UHFFFAOYSA-N,CCCCCCCCCC(=O)C,000112-12-9,-4.201816079,CCCCCCCCCC(C)=O
843,B-3878,trans-5-Decenyl acetate,VTUFOIHYMMMNOM-VOTSOKGWSA-N,CCCC/C=C/CCCCOC(=O)C,038421-90-8,-4.556970099,CCCCC=CCCCCOC(C)=O
844,B-3879,2.4'.5-Trichlorodiphenyl ether,FZBSTAVCYOMFMD-UHFFFAOYSA-N,C1=CC(=CC=C1OC2=C(C=CC(=C2)Cl)Cl)Cl,065075-00-5,-5.4401,Clc1ccc(Oc2cc(Cl)ccc2Cl)cc1
845,B-3884,2-Chloro-1-methyl-4-nitrobenzene,LLYXJBROWQDVMI-UHFFFAOYSA-N,CC1=C(C=C(C=C1)[N+](=O)[O-])Cl,000121-86-8,-3.407104731,Cc1ccc([N+](=O)[O-])cc1Cl
846,B-3888,Isobutyronitrile,LRDFRRGEGBBSRN-UHFFFAOYSA-N,CC(C)C#N,000078-82-0,-0.295,CC(C)C#N
847,B-3889,2.3.4'-Trichlorodiphenyl ether,KOTNFWJIMRGVBR-UHFFFAOYSA-N,C1=CC(=C(C(=C1)Cl)Cl)OC2=CC=C(C=C2)Cl,157683-71-1,-5.3099,Clc1ccc(Oc2cccc(Cl)c2Cl)cc1
848,B-3896,1.2.4-Thiadiazolidine-3.5-dithione,OTNSJAUBOYWVEB-UHFFFAOYSA-N,C1(=NSC(=N1)S)S,020939-17-7,-1.7618,Sc1nsc(S)n1
849,B-3906,ISOVALERONITRILE,QHDRKFYEGYYIIK-UHFFFAOYSA-N,CC(C)CC#N,000625-28-5,-0.806,CC(C)CC#N
850,B-3913,2.2-dimethyl-3H-1-benzofuran-7-ol,WJGPNUBJBMCRQH-UHFFFAOYSA-N,CC1(CC2=C(O1)C(=CC=C2)O)C,001563-38-8,-2.17557212,CC1(C)Cc2cccc(O)c2O1
851,B-3915,1.2.3-THIADIAZOLE. 5-METHYL-,PJBPUBIFRFCYHE-UHFFFAOYSA-N,CC1=CN=NS1,050406-54-7,0.0963,Cc1cnns1
852,B-3916,2-Ethoxy-4-methylphenol,ZWQBCCVEOIYNDL-UHFFFAOYSA-N,CCOC1=C(C=CC(=C1)C)O,002563-07-7,-1.649639157,CCOc1cc(C)ccc1O
853,B-3921,2.4.6-Cycloheptatrien-1-one. 5-bromo-2-hydroxy-4,XXRFBIMTKXBOTJ-UHFFFAOYSA-N,CC(C)C1=C(Br)C=CC(=O)C(O)=C1,090841-50-2,-3.6698,CC(C)c1cc(O)c(=O)ccc1Br
854,B-3923,4-METHOXYPHENYL  ISOTHIOCYANATE,VRPQCVLBOZOYCG-UHFFFAOYSA-N,COC1=CC=C(C=C1)N=C=S,002284-20-0,-3.6,COc1ccc(N=C=S)cc1
855,B-3924,1-methoxy-4-phenylbenzene,RHDYQUZYHZWTCI-UHFFFAOYSA-N,COC1=CC=C(C=C1)C2=CC=CC=C2,000613-37-6,-3.822897556,COc1ccc(-c2ccccc2)cc1
856,B-3929,[(Z)-dodec-7-enyl] acetate,MUZGQHWTRUVFLG-SREVYHEPSA-N,CCCC/C=C\CCCCCCOC(=O)C,014959-86-5,-5.600447896,CCCCC=CCCCCCCOC(C)=O
857,B-3932,OXYCHLORDANE,VWGNQYSIWFHEQU-UHFFFAOYSA-N,C12C(C(C3(C1O3)Cl)Cl)C4(C(=C(C2(C4(Cl)Cl)Cl)Cl)Cl)Cl,027304-13-8,-7.265397248,ClC1=C(Cl)C2(Cl)C3C4OC4(Cl)C(Cl)C3C1(Cl)C2(Cl)Cl
858,B-3933,Thiomorpholine. 4-phenyl-,DPXANBQAIVUQDO-UHFFFAOYSA-N,C1CSCCN1C2=CC=CC=C2,055330-78-4,-1.2536,c1ccc(N2CCSCC2)cc1
859,B-3934,(Z)-tetradec-9-en-1-ol,GSAAJQNJNPBBSX-WAYWQWQTSA-N,CCCC/C=C\CCCCCCCCO,035153-15-2,-4.969167727,CCCCC=CCCCCCCCCO
860,B-3938,TRICHLOROHYDROQUINONE,ZIIRLFNUZROIBX-UHFFFAOYSA-N,C1=C(C(=C(C(=C1Cl)O)Cl)Cl)O,000608-94-6,-1.5334,Oc1cc(Cl)c(O)c(Cl)c1Cl
861,B-3940,tert-butyl 4-chloro-2-methylcyclohexane-1-carboxylate,APMORJJNVZMVQK-UHFFFAOYSA-N,CC1CC(CCC1C(=O)OC(C)(C)C)Cl,012002-53-8,-2.36688913,CC1CC(Cl)CCC1C(=O)OC(C)(C)C
862,B-3941,N.N-DIMETHYLTHIOUREA,VLCDUOXHFNUCKK-UHFFFAOYSA-N,CNC(=NC)S,000534-13-4,0.9823,CN=C(S)NC
863,B-3942,Acetamide. 2-(acetylamino)-N-phenyl-,XXNQIMUHEWRFAB-UHFFFAOYSA-N,CC1=C2C(=CC=C1)CC3=C2C=C(N=C3)C,039764-27-7,-1.5678,Cc1cc2c(cn1)Cc1cccc(C)c1-2
864,B-3944,4-FLUORO-10-METHYL-1.2-BENZANTHRACENE,CDINAQYMBJWKKQ-UHFFFAOYSA-N,CC1=CC2=CC3=C(C=CC4=C3C=CC=C4F)C=C2C=C1,002990-70-7,-7.719999974,Cc1ccc2cc3ccc4c(F)cccc4c3cc2c1
865,B-3945,2-(4-methylphenyl)ethanamine,VKJXAQYPOTYDLO-UHFFFAOYSA-N,CC1=CC=C(C=C1)CCN,003261-62-9,-0.743613847,Cc1ccc(CCN)cc1
866,B-3946,METHYL 2.5-DICHLOROBENZOATE,SPJQBGGHUDNAIC-UHFFFAOYSA-N,COC(=O)C1=C(C=CC(=C1)Cl)Cl,002905-69-3,-3.372319764,COC(=O)c1cc(Cl)ccc1Cl
867,B-3947,3-Pyridinecarbothioic acid,OWDHSOUPMJJTFN-UHFFFAOYSA-N,C1=CC(=CN=C1)C(=O)S,051087-03-7,-1.3801,O=C(S)c1cccnc1
868,B-3950,tetrahydro-4-methyl-2-propyl-2h-pyran-4-yl acetate,GURYYNWDVKXZAT-UHFFFAOYSA-N,CCCC1CC(CCO1)(C)OC(=O)C,131766-73-9,-1.903691502,CCCC1CC(C)(OC(C)=O)CCO1
869,B-3951,4-chloro-2-(trifluoromethyl)aniline,CVINWVPRKDIGLL-UHFFFAOYSA-N,C1=CC(=C(C=C1Cl)C(F)(F)F)N,000445-03-4,-2.291305345,Nc1ccc(Cl)cc1C(F)(F)F
870,B-3953,trans-11-Tetradecenyl acetate,YJINQJFQLQIYHX-SNAWJCMRSA-N,CC/C=C/CCCCCCCCCCOC(=O)C,033189-72-9,-4.665174561,CCC=CCCCCCCCCCCOC(C)=O
871,B-3959,4:2 FTOH,JCMNMOBHVPONLD-UHFFFAOYSA-N,C(CO)C(C(C(C(F)(F)F)(F)F)(F)F)(F)F,002043-47-2,-2.434981045,OCCC(F)(F)C(F)(F)C(F)(F)C(F)(F)F
872,B-3963,ALLYL  CYANIDE,SJNALLRHIVGIBI-UHFFFAOYSA-N,C=CCC#N,000109-75-1,-0.309,C=CCC#N
873,B-3964,METHYL  3-ISOTHIOCYANATOBENZOATE,NQXFZEJJHPUMMF-UHFFFAOYSA-N,COC(=O)C1=CC(=CC=C1)N=C=S,003125-66-4,-3.57,COC(=O)c1cccc(N=C=S)c1
874,B-3968,ISOBENZAN,LRWHHSXTGZSMSN-UHFFFAOYSA-N,C12C(C(OC1Cl)Cl)C3(C(=C(C2(C3(Cl)Cl)Cl)Cl)Cl)Cl,000297-78-9,-6.636914222,ClC1=C(Cl)C2(Cl)C3C(Cl)OC(Cl)C3C1(Cl)C2(Cl)Cl
875,B-3978,Ethanesulfonyl chloride. 1-chloro-,XUWDWJZNNYTMJV-UHFFFAOYSA-N,CC(S(=O)(=O)Cl)Cl,003518-66-9,-1.3671,CC(Cl)S(=O)(=O)Cl
876,B-3979,Phenol. 4-bromo-3-methyl-,GPOQODYGMUTOQL-UHFFFAOYSA-N,CC1=C(C=CC(=C1)O)Br,014472-14-1,-2.0415,Cc1cc(O)ccc1Br
877,B-3984,Methoxy dicyclopentadiene carboxaldehyde,UOGMZEGKCNHMBF-UHFFFAOYSA-N,COC1CC2CC1C3C2CC(C3)C=O,086803-90-9,-1.650922717,COC1CC2CC1C1CC(C=O)CC21
878,B-3987,[(Z)-tetradec-9-enyl] acetate,XXPBOEBNDHAAQH-SREVYHEPSA-N,CCCC/C=C\CCCCCCCCOC(=O)C,016725-53-4,-6.706567246,CCCCC=CCCCCCCCCOC(C)=O
879,B-3988,[(7Z.11Z)-hexadeca-7.11-dienyl] acetate,BXJHOKLLMOYSRQ-QOXWLJPHSA-N,CCCC/C=C\CC/C=C\CCCCCCOC(=O)C,050933-33-0,-6.146824829,CCCCC=CCCC=CCCCCCCOC(C)=O
880,B-3989,N.N-Dimethyldecanamide,HNXNKTMIVROLTK-UHFFFAOYSA-N,CCCCCCCCCC(=O)N(C)C,014433-76-2,-2.763026425,CCCCCCCCCC(=O)N(C)C
881,B-3993,1H.1H.2H.2H-Perfluoro-1-decanol,JJUBFBTUBACDHW-UHFFFAOYSA-N,C(CO)C(C(C(C(C(C(C(C(F)(F)F)(F)F)(F)F)(F)F)(F)F)(F)F)(F)F)(F)F,000678-39-7,-6.314449356,OCCC(F)(F)C(F)(F)C(F)(F)C(F)(F)C(F)(F)C(F)(F)C(F)(F)C(F)(F)F
882,B-3998,(2.4-dimethylphenyl)methyl 2.2-dimethyl-3-(2-methylprop-1-enyl)cyclopropane-1-carboxylate,FHNKBSDJERHDHZ-IRXDYDNUSA-N,CC(C)=C[C@H]1[C@@H](C(=O)OCC2=C(C)C=C(C)C=C2)C1(C)C,000070-38-2,-6.900690529,CC(C)=CC1C(C(=O)OCc2ccc(C)cc2C)C1(C)C
883,B-4007,2.2-Dichloroethanol,IDJOCJAIQSKSOP-UHFFFAOYSA-N,C(C(Cl)Cl)O,000598-38-9,0.154300871,OCC(Cl)Cl
884,B-4009,tris(butylsulfanyl)phosphane,KLAPGAOQRZTCBI-UHFFFAOYSA-N,CCCCSP(SCCCC)SCCCC,000150-50-5,-5.11321519,CCCCSP(SCCCC)SCCCC
885,B-4012,2.4.8.10-Tetraoxaspiro[5.5]undecane. 3.9-bis(1-m,NEBWHJITDZAZPU-UHFFFAOYSA-N,CC(C)C1OCC2(CO1)COC(OC2)C(C)C,069695-04-1,-3.1138,CC(C)C1OCC2(CO1)COC(C(C)C)OC2
886,B-4013,Perfluorodecanoic acid,PCIUEQPBYFRTEM-UHFFFAOYSA-N,C(=O)(C(C(C(C(C(C(C(C(C(F)(F)F)(F)F)(F)F)(F)F)(F)F)(F)F)(F)F)(F)F)(F)F)O,000335-76-2,-3.296062682,O=C(O)C(F)(F)C(F)(F)C(F)(F)C(F)(F)C(F)(F)C(F)(F)C(F)(F)C(F)(F)C(F)(F)F
887,B-4025,10.13-dimethyl-17-[1-[2-methyl-2-(3-methylbutan-2-yl)cyclopropyl]ethyl]-2.3.4.7.8.9.11.12.14.15.16.17-dodecahydro-1H-cyclopenta[a]phenanthren-3-ol,YRPMZHRSQIFCLR-UHFFFAOYSA-N,CC(C)C(C)C1(CC1C(C)C2CCC3C2(CCC4C3CC=C5C4(CCC(C5)O)C)C)C,029782-65-8,-0.982782551,CC(C)C(C)C1(C)CC1C(C)C1CCC2C3CC=C4CC(O)CCC4(C)C3CCC12C
888,B-4026,8:2 FTUCA,WHZXTVOEGZRRJM-UHFFFAOYSA-N,C(=C(C(C(C(C(C(C(C(F)(F)F)(F)F)(F)F)(F)F)(F)F)(F)F)(F)F)F)C(=O)O,070887-84-2,-3.85477937,O=C(O)C=C(F)C(F)(F)C(F)(F)C(F)(F)C(F)(F)C(F)(F)C(F)(F)C(F)(F)F
889,B-4029,4-Butylaniline,OGIQUQKNJJTLSZ-UHFFFAOYSA-N,CCCCC1=CC=C(C=C1)N,000104-13-2,-2.609,CCCCc1ccc(N)cc1
890,B-4031,2-Isobutyl-4-methyltetrahydro-2H-pyran-4-ol,YVSNOTITPICPTB-UHFFFAOYSA-N,CC(C)CC1CC(CCO1)(C)O,063500-71-0,2.210956445,CC(C)CC1CC(C)(O)CCO1
891,B-4034,Benzoic acid. 3-brom-4-hydroxy-. methyl ester,RKUNSPWAQIUGEZ-UHFFFAOYSA-N,COC(=O)C1=CC(=C(C=C1)O)Br,029415-97-2,-3.165,COC(=O)c1ccc(O)c(Br)c1
892,B-4040,3-Fluoro-10-methyl-1.2-benzanthracene,GTIMEDOGDQMFOX-UHFFFAOYSA-N,CC1=CC2=CC3=C(C=CC4=C3C=CC(=C4)F)C=C2C=C1,020629-50-9,-7.719999974,Cc1ccc2cc3ccc4cc(F)ccc4c3cc2c1
893,B-4041,4-BROMOBENZYL  ISOTHIOCYANATE,LJLVCPAZYKYXCH-UHFFFAOYSA-N,C1=CC(=CC=C1CN=C=S)Br,002076-56-4,-3.82,S=C=NCc1ccc(Br)cc1
894,B-4042,Benzaldehyde. 2-hydroxy-3.5-diiodo-,MYWSBJKVOUZCIA-UHFFFAOYSA-N,C1=C(C=C(C(=C1C=O)O)I)I,002631-77-8,-4.0957,O=Cc1cc(I)cc(I)c1O
895,B-4047,ETOXADROL,INOYCBNLWYEPSB-UHFFFAOYSA-N,CCC1(OCC(O1)C2CCCCN2)C3=CC=CC=C3,028189-85-7,-1.96,CCC1(c2ccccc2)OCC(C2CCCCN2)O1
896,B-4048,Thiobenzamide,QIOZLISABUUKJY-UHFFFAOYSA-N,C1=CC=C(C=C1)C(=N)S,002227-79-4,-1.92,N=C(S)c1ccccc1
897,B-4053,FURAZAN. DIMETHYL-. 2-OXIDE,YQPMTPLDOVSQDU-UHFFFAOYSA-N,CC1=NO[N+](=C1C)[O-],002518-42-5,-0.5348,Cc1no[n+]([O-])c1C
898,B-4072,1H-Isoindole-1.3(2H)-dione. 2-(1-methylpropyl)-,ZTXOTHWCDVUQRM-UHFFFAOYSA-N,CCC(C)N1C(=O)C2=CC=CC=C2C1=O,010108-61-9,-2.9101,CCC(C)N1C(=O)c2ccccc2C1=O
899,B-4076,4H-1-BENZOPYRAN-4-ONE. 2.3-DIMETHYL-,KQLDYIIDXBUUCK-UHFFFAOYSA-N,CC1=C(OC2=CC=CC=C2C1=O)C,017584-90-6,-2.065,Cc1oc2ccccc2c(=O)c1C
900,B-4083,2-BROMO-4-NITROPHENOL,DCIPFSYBGTWYCR-UHFFFAOYSA-N,C1=CC(=C(C=C1[N+](=O)[O-])Br)O,005847-59-6,-0.9961,O=[N+]([O-])c1ccc(O)c(Br)c1
901,B-4084,6-ethoxy-2.2.4-trimethyl-1H-quinoline,DECIPOUIJURFOJ-UHFFFAOYSA-N,CCOC1=CC2=C(C=C1)NC(C=C2C)(C)C,000091-53-2,-3.332758738,CCOc1ccc2c(c1)C(C)=CC(C)(C)N2
902,B-4091,2-Furancarboxylic acid. 5-bromo-,YVTQHZDUDUCGRD-UHFFFAOYSA-N,C1=C(OC(=C1)Br)C(=O)O,000585-70-6,-1.9386,O=C(O)c1ccc(Br)o1
903,B-4094,ETHYL  PHENYLACETATE,DULCUDSUACXJJC-UHFFFAOYSA-N,CCOC(=O)CC1=CC=CC=C1,000101-97-3,-2.05,CCOC(=O)Cc1ccccc1
904,B-4098,Glycolic acid. propyl ester. nitrate,AQOGFYKIAFAMFK-UHFFFAOYSA-N,CCCOC(=O)CO[N+](=O)[O-],022665-54-9,-1.9573,CCCOC(=O)CO[N+](=O)[O-]
905,B-4100,FURYLACRYLIC  ACID,LXZFMKLKTRIZDJ-UHFFFAOYSA-N,C=C(C1=CC=CO1)C(=O)O,092915-78-1,-1.84,C=C(C(=O)O)c1ccco1
906,B-4105,2-((4-Aminobutyl)amino)-1.2-diphenylethanol,KIDHWZJUCRJVML-UHFFFAOYSA-N,C(CCN)CN,000110-60-1,1.000825905,NCCCCN
907,B-4113,2-(2-hydroxypropan-2-yl)-5-methylcyclohexan-1-ol,LMXFTMYMHGYJEI-HRDYMLBCSA-N,C[C@@H]1CC[C@@H]([C@H](O)C1)C(C)(C)O,042822-86-6,-2.773803589,CC1CCC(C(C)(C)O)C(O)C1
908,B-4114,Benzenamine. 2.4-dichloro-N-nitro-,SCJFLIAVBGXJPL-UHFFFAOYSA-N,C1=CC(=C(C=C1Cl)Cl)N[N+](=O)[O-],069732-99-6,-3.0,O=[N+]([O-])Nc1ccc(Cl)cc1Cl
909,B-4118,Perfluoroundecanoic acid,SIDINRCMMRKXGQ-UHFFFAOYSA-N,C(=O)(C(C(C(C(C(C(C(C(C(C(F)(F)F)(F)F)(F)F)(F)F)(F)F)(F)F)(F)F)(F)F)(F)F)(F)F)O,002058-94-8,-3.78756373,O=C(O)C(F)(F)C(F)(F)C(F)(F)C(F)(F)C(F)(F)C(F)(F)C(F)(F)C(F)(F)C(F)(F)C(F)(F)F
910,B-4121,m-Dioxane. 5-methyl-5-nitro-2-propyl-,ZWGULOXDEJEBKB-UHFFFAOYSA-N,CCCC1OCC(CO1)(C)[N+](=O)[O-],005663-15-0,-1.7998,CCCC1OCC(C)([N+](=O)[O-])CO1
911,B-4125,Elaidic acid,ZQPPMHVWECSIRJ-MDZDMXLPSA-N,CCCCCCCC/C=C/CCCCCCCC(=O)O,002027-47-6,-7.371784011,CCCCCCCCC=CCCCCCCCC(=O)O
912,B-4126,Benzoic acid. 2.4.6-tribromo-,GHVMJSHEGZYRQL-UHFFFAOYSA-N,C1=C(C=C(C(=C1Br)C(=O)O)Br)Br,000633-12-5,-2.0108,O=C(O)c1c(Br)cc(Br)cc1Br
913,B-4140,ANISYL  ACETATE,HFNGYHHRRMSKEU-UHFFFAOYSA-N,CC(=O)OCC1=CC=C(C=C1)OC,000104-21-2,-1.959,COc1ccc(COC(C)=O)cc1
914,B-4148,Glycolic acid. methyl ester. nitrate,RSSRDMODZVKNPX-UHFFFAOYSA-N,COC(=O)CO[N+](=O)[O-],004059-62-5,-0.7432,COC(=O)CO[N+](=O)[O-]
915,B-4149,1(3H)-ISOBENZOFURANONE.3.3-DIETHYL,UPWLZDAZAZFPKZ-UHFFFAOYSA-N,CCC1(C2=CC=CC=C2C(=O)O1)CC,004770-31-4,-2.8643,CCC1(CC)OC(=O)c2ccccc21
916,B-4153,Tetrafluthrin,ZFHGXWPMULPQSE-OVGMLNDJSA-N,O=C([C@@H]1[C@H](C1(C)C)/C=C(/C(F)(F)F)\Cl)OCC1C(F)C(F)C(C(C1F)F)C,079538-32-2,-7.320899992,CC1C(F)C(F)C(COC(=O)C2C(C=C(Cl)C(F)(F)F)C2(C)C)C(F)C1F
917,B-4157,2-Methoxy-4-(tetrahydro-4-methylene-2H-pyran-2-yl)phenol,FCOURWMCEWGKGO-UHFFFAOYSA-N,COC1=C(C=CC(=C1)C2CC(=C)CCO2)O,128489-04-3,-2.029083399,C=C1CCOC(c2ccc(O)c(OC)c2)C1
918,B-4166,THENYLDIAMINE,RCGYDFVCAAKKNG-UHFFFAOYSA-N,CN(C)CCN(CC1=CSC=C1)C2=CC=CC=N2,000091-79-2,-1.7696,CN(C)CCN(Cc1ccsc1)c1ccccn1
919,B-4171,ETHYL  PHENYLTHIOACETATE,SEDRTXNDGKRHBL-UHFFFAOYSA-N,CCOC(=O)CSC1=CC=CC=C1,007605-25-6,-1.57,CCOC(=O)CSc1ccccc1
920,B-4175,2.2.3-trichloropropanoic acid,QZEKHJXYZSJVCL-UHFFFAOYSA-N,C(C(C(=O)O)(Cl)Cl)Cl,003278-46-4,-1.752059464,O=C(O)C(Cl)(Cl)CCl
921,B-4184,3-METHYL-N-OXIDEPYRIDINE,DMGGLIWGZFZLIY-UHFFFAOYSA-N,CC1=C[N+](=CC=C1)[O-],001003-73-2,0.9621,Cc1ccc[n+]([O-])c1
922,B-4185,Fonophos,KVGLBTYUCJYMND-UHFFFAOYSA-N,CCOP(=S)(CC)SC1=CC=CC=C1,000944-22-9,-4.159,CCOP(=S)(CC)Sc1ccccc1
923,B-4186,ETHYL  3-PHENYLTHIOPROPIONATE,PEPOQQRRKLMLJV-UHFFFAOYSA-N,CCOC(=O)CCSC1=CC=CC=C1,060805-64-3,-2.12,CCOC(=O)CCSc1ccccc1
924,B-4192,Angelica Lactone,BGLUXFNVVSVEET-UHFFFAOYSA-N,CC1C=CC(=O)O1,001333-38-6,-0.2927,CC1C=CC(=O)O1
925,B-4193,1.1-Bis(4-chlorophenyl)ethanol,URYAFVKLYSEINW-UHFFFAOYSA-N,CC(C1=CC=C(C=C1)Cl)(C2=CC=C(C=C2)Cl)O,000080-06-8,-4.441335532,CC(O)(c1ccc(Cl)cc1)c1ccc(Cl)cc1
926,B-4195,1.3.5-Triazine-2.4-diamine. N.N-diethyl-,VGCRQLSQCHXMIS-UHFFFAOYSA-N,CCN(CC)C1=NC=NC(=N1)N,029919-17-3,-1.6212,CCN(CC)c1ncnc(N)n1
927,B-4197,METHYL  2-PHENYLTHIOACETATE,MUNSXQQODXYRKI-UHFFFAOYSA-N,COC(=O)CSC1=CC=CC=C1,017277-58-6,-1.02,COC(=O)CSc1ccccc1
928,B-4199,2-[(4-chloro-3-methylphenyl)amino]benzoic acid,QDNMBJXNLJFNHT-UHFFFAOYSA-N,CC1=C(C=CC(=C1)NC2=CC=CC=C2C(=O)O)Cl,898128-45-5,-5.525721234,Cc1cc(Nc2ccccc2C(=O)O)ccc1Cl
929,B-4205,Bicyclo[2.2.1]hept-5-ene-2.3-dicarboxylic acid.,UXRMRBNLTQHPEU-UHFFFAOYSA-N,CCOC(=O)C1C2CC(C=C2)C1C(=O)OCC,007288-32-6,-1.8281,CCOC(=O)C1C2C=CC(C2)C1C(=O)OCC
930,B-4209,PROPYL  PHENYLTHIOACETATE,PGNCCKPNZYBMHV-UHFFFAOYSA-N,CCCOC(=O)CSC1=CC=CC=C1,174872-90-3,-2.15,CCCOC(=O)CSc1ccccc1
931,B-4210,(2.6-dibromo-4-cyanophenyl) heptanoate,BHZWBQPHPLFZSV-UHFFFAOYSA-N,CCCCCCC(=O)OC1=C(C=C(C=C1Br)C#N)Br,056634-95-8,-6.686955617,CCCCCCC(=O)Oc1c(Br)cc(C#N)cc1Br
932,B-4212,BUTYL  PHENYLTHIOACETATE,MPGIAEVWEVYNKM-UHFFFAOYSA-N,CCCCOC(=O)CSC1=CC=CC=C1,066132-81-8,-2.75,CCCCOC(=O)CSc1ccccc1
933,B-4213,CHLORTHIAMID,KGKGSIUWJCAFPX-UHFFFAOYSA-N,C1=CC(=C(C(=C1)Cl)C(=N)S)Cl,001918-13-4,-2.336,N=C(S)c1c(Cl)cccc1Cl
934,B-4214,N-(2.3-dichloro-4-hydroxyphenyl)-1-methylcyclohexane-1-carboxamide,VDLGAVXLJYLFDH-UHFFFAOYSA-N,CC1(CCCCC1)C(=O)NC2=C(C(=C(C=C2)O)Cl)Cl,126833-17-8,-4.179264177,CC1(C(=O)Nc2ccc(O)c(Cl)c2Cl)CCCCC1
935,B-4218,2.4-D. ETHYL ESTER,JSLBZIVMVVHMDJ-UHFFFAOYSA-N,CCOCC(=O)OC1=CC=C(Cl)C=C1Cl,000533-23-3,-3.3503,CCOCC(=O)Oc1ccc(Cl)cc1Cl
936,B-4221,N.N-Diethyl-3-methylbenzamide,MMOXZBCLCQITDF-UHFFFAOYSA-N,CCN(CC)C(=O)C1=CC=CC(=C1)C,000134-62-3,-2.321657469,CCN(CC)C(=O)c1cccc(C)c1
937,B-4223,N-NITROMORPHOLINE,YZXKWVREBLYPID-UHFFFAOYSA-N,C1COCCN1[N+](=O)[O-],004164-32-3,-0.5189,O=[N+]([O-])N1CCOCC1
938,B-4226,Chloromethiuron,IBZZDPVVVSNQOY-UHFFFAOYSA-N,CC1=C(C=CC(=C1)Cl)N=C(N(C)C)S,028217-97-2,-3.6604,Cc1cc(Cl)ccc1N=C(S)N(C)C
939,B-4227,3-chloro-5-(trifluoromethyl)pyridine-2-carboxylic Acid,HXRMCZBDTDCCOP-UHFFFAOYSA-N,C1=C(C=NC(=C1Cl)C(=O)O)C(F)(F)F,080194-68-9,-2.512079609,O=C(O)c1ncc(C(F)(F)F)cc1Cl
940,B-4229,Quinazoline. 3.4-dihydro-,LGACUMPRRMLUFZ-UHFFFAOYSA-N,C1C2=CC=CC=C2NC=N1,001904-64-9,-0.7232,C1=NCc2ccccc2N1
941,B-4230,ISOPROPYL  PHENYLTHIOACETATE,VECQXVQFEJGAAH-UHFFFAOYSA-N,CC(C)OC(=O)CSC1=CC=CC=C1,135082-37-0,-2.08,CC(C)OC(=O)CSc1ccccc1
942,B-4232,N'-[(5-chlorothiophen-2-yl)methyl]-N.N-dimethyl-N'-pyridin-2-ylethane-1.2-diamine,XAEXSWVTEJHRMH-UHFFFAOYSA-N,CN(C)CCN(CC1=CC=C(S1)Cl)C2=CC=CC=N2,000148-65-2,-2.1674,CN(C)CCN(Cc1ccc(Cl)s1)c1ccccn1