,C_ID,Name,InChIKey,SMILES,CAS,LogS,smiles_canon
1779,B-6500,3-tricyclo[5.2.1.02.6]dec-4-enyl prop-2-enoate,ISRJTGUYHVPAOR-UHFFFAOYSA-N,C=CC(=O)OC1C=CC2C1C3CCC2C3,012542-30-2,-3.708140771,C=CC(=O)OC1C=CC2C3CCC(C3)C12
1780,B-6501,1.1.2.3.3-pentamethyl-2.5.6.7-tetrahydroinden-4-one,MIZGSAALSYARKU-UHFFFAOYSA-N,CC1C(C2=C(C1(C)C)C(=O)CCC2)(C)C,033704-61-9,-3.623474992,CC1C(C)(C)C2=C(C(=O)CCC2)C1(C)C
1781,B-6502,undec-10-enal,OFHHDSQXFXLTKC-UHFFFAOYSA-N,C=CCCCCCCCCC=O,000112-45-8,-3.893182071,C=CCCCCCCCCC=O
1782,B-6503,(2-tert-butylcyclohexyl) ethyl carbonate,ZHWLEUGSDGROJS-UHFFFAOYSA-N,CCOC(=O)OC1CCCCC1C(C)(C)C,067801-64-3,-4.321138,CCOC(=O)OC1CCCCC1C(C)(C)C
1783,B-6504,3-Methylbut-2-en-1-ol,ASUAYTHWZCLXAN-UHFFFAOYSA-N,CC(=CCO)C,000556-82-1,-0.128991617,CC(C)=CCO
1784,B-6505,2-Ethoxynaphthalene,GUMOJENFFHZAFP-UHFFFAOYSA-N,CCOC1=CC2=CC=CC=C2C=C1,000093-18-5,-7.236099219,CCOc1ccc2ccccc2c1
1785,B-6506,4-(2-methylbutan-2-yl)cyclohexan-1-one,DCSKAMGZSIRJAQ-UHFFFAOYSA-N,CCC(C)(C)C1CCC(=O)CC1,016587-71-6,-2.656888649,CCC(C)(C)C1CCC(=O)CC1
1786,B-6507,1-Chloro-2-methyl-3-nitrobenzene,XCSNRORTQRKCHB-UHFFFAOYSA-N,CC1=C(C=CC=C1Cl)[N+](=O)[O-],000083-42-1,-3.270686176,Cc1c(Cl)cccc1[N+](=O)[O-]
1787,B-6509,dec-9-en-1-ol,QGFSQVPRCWJZQK-UHFFFAOYSA-N,C=CCCCCCCCCO,013019-22-2,-3.047740351,C=CCCCCCCCCO
1788,B-6510,2-[(1S.5R)-7.7-dimethyl-4-bicyclo[3.1.1]hept-3-enyl]ethyl acetate,AWNOGHRWORTNEI-RYUDHWBXSA-N,CC(=O)OCCC1=CC[C@H]2C[C@@H]1C2(C)C,035836-72-7,-4.142597594,CC(=O)OCCC1=CCC2CC1C2(C)C
1789,B-6511,1.10-Dichlorodecane,RBBNTRDPSVZESY-UHFFFAOYSA-N,C(CCCCCCl)CCCCCl,002162-98-3,-2.421550459,ClCCCCCCCCCCCl
1790,B-6512,Methyl 2-methylbenzoate,WVWZECQNFWFVFW-UHFFFAOYSA-N,CC1=CC=CC=C1C(=O)OC,000089-71-4,-1.756647098,COC(=O)c1ccccc1C
1791,B-6513,4-Chlorobenzaldehyde,AVPYQKSLYISFPO-UHFFFAOYSA-N,C1=CC(=CC=C1C=O)Cl,000104-88-1,-2.177077635,O=Cc1ccc(Cl)cc1
1792,B-6514,2-methylcyclopentadec-2-en-1-one,ZLICVGXIPCPPMS-UHFFFAOYSA-N,CC1=CCCCCCCCCCCCCC1=O,082356-51-2,-3.094887625,CC1=CCCCCCCCCCCCCC1=O
1793,B-6515,4-(cyclohexen-1-yl)-3-methylbutan-1-ol,IOGBYRZHTZYOQL-UHFFFAOYSA-N,CC(CCO)CC1=CCCCC1,1359994-45-8,-2.754736663,CC(CCO)CC1=CCCCC1
1794,B-6516,(1R.2S)-2.6-dimethyl-2.3-dihydro-1H-inden-1-amine,NMRCYNVWDPJOAC-GZMMTYOYSA-N,C[C@H]1CC2=C([C@@H]1N)C=C(C=C2)C,752984-24-0,-1.716127795,Cc1ccc2c(c1)C(N)C(C)C2
1795,B-6517,methyl 2-methylaminobenzoate,GVOWHGSUZUUUDR-UHFFFAOYSA-N,CNC1=CC=CC=C1C(=O)OC,000085-91-6,-2.699747317,CNc1ccccc1C(=O)OC
1796,B-6518,1-ethynylcyclohexan-1-ol,QYLFHLNFIHBCPR-UHFFFAOYSA-N,C#CC1(CCCCC1)O,000078-27-3,-0.704885571,C#CC1(O)CCCCC1
1797,B-6519,2-hydroperoxy-2-methylbutane,XRXANEMIFVRKLN-UHFFFAOYSA-N,CCC(C)(C)OO,003425-61-4,-0.216592907,CCC(C)(C)OO
1798,B-6520,2-[2-(4-methyl-1-cyclohex-3-enyl)propyl]cyclopentan-1-one,KNHGOYVXAHUDHP-UHFFFAOYSA-N,CC1=CCC(CC1)C(C)CC2CCCC2=O,095962-14-4,-4.680363107,CC1=CCC(C(C)CC2CCCC2=O)CC1
1799,B-6521,prop-1-en-2-yl acetate,HETCEOQFVDFGSY-UHFFFAOYSA-N,CC(=C)OC(=O)C,000108-22-5,-0.527751378,C=C(C)OC(C)=O
1800,B-6522,(8S)-7.7.8.9.9-pentamethyl-6.8-dihydro-5H-cyclopenta[h]quinazoline,YVFVTDLZSKSFCQ-JTQLQIEISA-N,C[C@H]1C(C2=C(C1(C)C)C3=NC=NC=C3CC2)(C)C,1315251-11-6,-4.787869582,CC1C(C)(C)C2=C(c3ncncc3CC2)C1(C)C
1801,B-6523,Hexyl benzoate,UUGLJVMIFJNVFH-UHFFFAOYSA-N,CCCCCCOC(=O)C1=CC=CC=C1,006789-88-4,-4.135488597,CCCCCCOC(=O)c1ccccc1
1802,B-6524,2.2-dimethyl-3-[(2E)-3-methylpenta-2.4-dienyl]oxirane,LIMXJCIGROLRED-SOFGYWHQSA-N,C/C(=C\CC1C(O1)(C)C)/C=C,069103-20-4,-2.353856897,C=CC(C)=CCC1OC1(C)C
1803,B-6525,phenylsulfanylbenzene,LTYMSROWYAPPGB-UHFFFAOYSA-N,C1=CC=C(C=C1)SC2=CC=CC=C2,000139-66-2,-4.360589217,c1ccc(Sc2ccccc2)cc1
1804,B-6526,(Z)-pent-2-enenitrile,ISBHMJZRKAFTGE-ARJAWSKDSA-N,CC/C=C\C#N,025899-50-7,-0.859909919,CCC=CC#N
1805,B-6527,4-propan-2-ylbenzaldehyde,WTWBUQJHJGUZCY-UHFFFAOYSA-N,CC(C)C1=CC=C(C=C1)C=O,000122-03-2,-2.785254238,CC(C)c1ccc(C=O)cc1
1806,B-6528,(4E)-4-(8-tricyclo[5.2.1.02.6]decanylidene)butanal,WFEISWUNAJPLRX-ONNFQVAWSA-N,C1CC2C(C1)C\3CC2C/C3=C\CCC=O,030168-23-1,-4.090184512,O=CCCC=C1CC2CC1C1CCCC21
1807,B-6529,methyl 2-cyclopentylideneacetate,ZDBCSZOFHPULAS-UHFFFAOYSA-N,COC(=O)C=C1CCCC1,040203-73-4,-1.961999582,COC(=O)C=C1CCCC1
1808,B-6530,1-(2-ethylbutyl)cyclohexane-1-carbonitrile,DRMOLJPDSCAGCC-UHFFFAOYSA-N,CCC(CC)CC1(CCCCC1)C#N,855425-38-6,-6.587329247,CCC(CC)CC1(C#N)CCCCC1
1809,B-6531,2.4-Dichloro-1-nitrobenzene,QUIMTLZDMCNYGY-UHFFFAOYSA-N,C1=CC(=C(C=C1Cl)Cl)[N+](=O)[O-],000611-06-3,-3.047775496,O=[N+]([O-])c1ccc(Cl)cc1Cl
1810,B-6532,ethyl 2.2-dimethyl-3-(2-methylprop-1-enyl)cyclopropane-1-carboxylate,VIMXTGUGWLAOFZ-UHFFFAOYSA-N,CCOC(=O)C1C(C1(C)C)C=C(C)C,000097-41-6,-4.765265619,CCOC(=O)C1C(C=C(C)C)C1(C)C
1811,B-6533,Dimethyl carbonate,IEJIGPNLZYLLBP-UHFFFAOYSA-N,COC(=O)OC,000616-38-6,0.10494179,COC(=O)OC
1812,B-6534,2-Hexylcyclopent-2-en-1-one,VGECIEOJXLMWGO-UHFFFAOYSA-N,CCCCCCC1=CCCC1=O,000095-41-0,-2.819032266,CCCCCCC1=CCCC1=O
1813,B-6535,1.4-di(ethenoxy)butane,MWZJGRDWJVHRDV-UHFFFAOYSA-N,C=COCCCCOC=C,003891-33-6,-2.449600278,C=COCCCCOC=C
1814,B-6536,2-tert-Butyl-4-methylphenol,IKEHOXWJQXIQAG-UHFFFAOYSA-N,CC1=CC(=C(C=C1)O)C(C)(C)C,002409-55-4,-2.69175045,Cc1ccc(O)c(C(C)(C)C)c1
1815,B-6537,4-(2.6.6-trimethyl-1-cyclohexenyl)butan-2-one,QJJDNZGPQDGNDX-UHFFFAOYSA-N,CC1=C(C(CCC1)(C)C)CCC(=O)C,017283-81-7,-3.655040553,CC(=O)CCC1=C(C)CCCC1(C)C
1816,B-6538,(1-cyclopenta-2.4-dienylidene-phenylmethyl)benzene,BULLHRADHZGONG-UHFFFAOYSA-N,C1=CC=C(C=C1)C(=C2C=CC=C2)C3=CC=CC=C3,002175-90-8,-7.362310155,C1=CC(=C(c2ccccc2)c2ccccc2)C=C1
1817,B-6539,(2.4-dimethyl-1-cyclohex-3-enyl)methyl acetate,LICUDMOFXVHDPB-UHFFFAOYSA-N,CC1C=C(CCC1COC(=O)C)C,067634-26-8,-3.250396175,CC(=O)OCC1CCC(C)=CC1C
1818,B-6540,2-(2-methylbutan-2-yl)phenol,BGRKGHSKCFAPCL-UHFFFAOYSA-N,CCC(C)(C)C1=CC=CC=C1O,003279-27-4,-2.491221047,CCC(C)(C)c1ccccc1O
1819,B-6541,(E)-6-methyloct-5-en-2-one,SAXWRVSDVXCTEL-SOFGYWHQSA-N,CC/C(=C/CCC(=O)C)/C,024199-46-0,-2.19258232,CCC(C)=CCCC(C)=O
1820,B-6542,Oct-7-en-1-ol,WXPWPYISTQCNDP-UHFFFAOYSA-N,C=CCCCCCCO,013175-44-5,-1.718768688,C=CCCCCCCO
1821,B-6543,1-(3-chlorophenyl)propan-1-one,PQWGFUFROKIJBO-UHFFFAOYSA-N,CCC(=O)C1=CC(=CC=C1)Cl,034841-35-5,-1.846704282,CCC(=O)c1cccc(Cl)c1
1822,B-6544,4.5-dimethyl-2-propan-2-ylphenol,RFRYAUSWHSKOIY-UHFFFAOYSA-N,CC1=CC(=C(C=C1C)O)C(C)C,035786-94-8,-2.808956737,Cc1cc(O)c(C(C)C)cc1C
1823,B-6545,3-Dimethylaminopropan-1-ol,PYSGFFTXMUWEOT-UHFFFAOYSA-N,CN(C)CCCO,003179-63-3,0.986472669,CN(C)CCCO
1824,B-6546,(E)-2-ethyl-4-(2.2.3-trimethyl-1-cyclopent-3-enyl)but-2-en-1-ol,KHQDWCKZXLWDNM-KPKJPENVSA-N,CC/C(=C\CC1CC=C(C1(C)C)C)/CO,106185-75-5,-3.906654507,CCC(=CCC1CC=C(C)C1(C)C)CO
1825,B-6547,3.7-dimethylocta-1.6-dien-3-yl 2-methylpropanoate,JZIARAQCPRDGAC-UHFFFAOYSA-N,CC(C)C(=O)OC(C)(CCC=C(C)C)C=C,000078-35-3,-4.810581887,C=CC(C)(CCC=C(C)C)OC(=O)C(C)C
1826,B-6548,(E)-1-(2.6.6-trimethyl-1-cyclohexa-1.3-dienyl)but-2-en-1-one,POIARNZEYGURDG-FNORWQNLSA-N,C/C=C/C(=O)C1=C(C=CCC1(C)C)C,023726-93-4,-3.005245792,CC=CC(=O)C1=C(C)C=CCC1(C)C
1827,B-6549,11-methyldodecyl dodecanoate,YTPNTTUPPCGZPJ-UHFFFAOYSA-N,CCCCCCCCCCCC(=O)OCCCCCCCCCCC(C)C,094134-83-5,-7.076318022,CCCCCCCCCCCC(=O)OCCCCCCCCCCC(C)C
1828,B-6550,3-methylbut-2-enyl acetate,XXIKYCPRDXIMQM-UHFFFAOYSA-N,CC(=CCOC(=O)C)C,001191-16-8,-1.474319962,CC(=O)OCC=C(C)C
1829,B-6551,prop-2-enyl hexanoate,RCSBILYQLVXLJG-UHFFFAOYSA-N,CCCCCC(=O)OCC=C,000123-68-2,-2.576747968,C=CCOC(=O)CCCCC
1830,B-6552,N-[(Z)-octadec-9-enyl]propane-1.3-diamine,TUFJPPAQOXUHRI-KTKRTIGZSA-N,CCCCCCCC/C=C\CCCCCCCCNCCCN,007173-62-8,-3.955035311,CCCCCCCCC=CCCCCCCCCNCCCN
1831,B-6553,(6R)-3-methyl-6-propan-2-ylcyclohex-2-en-1-one,YSTPAHQEHQSRJD-SECBINFHSA-N,CC1=CC(=O)[C@H](CC1)C(C)C,004573-50-6,-1.788240267,CC1=CC(=O)C(C(C)C)CC1
1832,B-6554,4-tert-Butylbenzaldehyde,OTXINXDGSUFPNU-UHFFFAOYSA-N,CC(C)(C)C1=CC=C(C=C1)C=O,000939-97-9,-3.130952599,CC(C)(C)c1ccc(C=O)cc1
1833,B-6555,(E)-1-(2.6.6-trimethylcyclohexen-1-yl)but-2-en-1-one,BGTBFNDXYDYBEY-FNORWQNLSA-N,C/C=C/C(=O)C1=C(CCCC1(C)C)C,023726-91-2,-2.996178458,CC=CC(=O)C1=C(C)CCCC1(C)C
1834,B-6556,[(Z)-hex-3-enyl] methyl carbonate,BLOXMGXSDAAJGX-PLNGDYQASA-N,CC/C=C\CCOC(=O)OC,067633-96-9,-3.069830099,CCC=CCCOC(=O)OC
1835,B-6557,3.7-Dimethyloct-6-en-1-ol,QMVPMAAFGQKVCJ-UHFFFAOYSA-N,CC(CCC=C(C)C)CCO,000106-22-9,-2.706730011,CC(C)=CCCC(C)CCO
1836,B-6558,2.2-Bis(tert-butylperoxy)butane,HQOVXPHOJANJBR-UHFFFAOYSA-N,CCC(C)(OOC(C)(C)C)OOC(C)(C)C,002167-23-9,-4.450759067,CCC(C)(OOC(C)(C)C)OOC(C)(C)C
1837,B-6559,2.6-Dimethyloct-7-en-2-yl acetate,BEARMGATPGLSKG-UHFFFAOYSA-N,CC(CCCC(C)(C)OC(=O)C)C=C,053767-93-4,-4.03016106,C=CC(C)CCCC(C)(C)OC(C)=O
1838,B-6560,3.5-dimethylhex-1-yn-3-ol,NECRQCBKTGZNMH-UHFFFAOYSA-N,CC(C)CC(C)(C#C)O,000107-54-0,-1.036601366,C#CC(C)(O)CC(C)C
1839,B-6561,Oct-7-enal,LIINGNMKNRSOGW-UHFFFAOYSA-N,C=CCCCCCC=O,021573-31-9,-1.997248751,C=CCCCCCC=O
1840,B-6562,(E)-1-(2.6.6-trimethylcyclohexen-1-yl)pent-1-en-3-one,LMWNGLDCJDIIBR-CMDGGOBGSA-N,CCC(=O)/C=C/C1=C(CCCC1(C)C)C,063429-28-7,-4.187451686,CCC(=O)C=CC1=C(C)CCCC1(C)C
1841,B-6563,(2-methyl-1-phenylpropan-2-yl) butanoate,SHSGYHAHMQLYRB-UHFFFAOYSA-N,CCCC(=O)OC(C)(C)CC1=CC=CC=C1,010094-34-5,-4.135940247,CCCC(=O)OC(C)(C)Cc1ccccc1
1842,B-6564,2-Ethylhexyl benzoate,UADWUILHKRXHMM-UHFFFAOYSA-N,CCCCC(CC)COC(=O)C1=CC=CC=C1,005444-75-7,-5.767781986,CCCCC(CC)COC(=O)c1ccccc1
1843,B-6565,2-(2-methylprop-2-enyl)cyclododecan-1-one,RSOBFXURUKCIKG-UHFFFAOYSA-N,CC(=C)CC1CCCCCCCCCCC1=O,062599-49-9,-5.169521243,C=C(C)CC1CCCCCCCCCCC1=O
1844,B-6566,2-(2.3.3.4.5.5-hexamethylhexan-2-ylsulfanyldisulfanyl)-2.3.3.4.5.5-hexamethylhexane,AWSNFBCZTJENAR-UHFFFAOYSA-N,CC(C(C)(C)C)C(C)(C)C(C)(C)SSSC(C)(C)C(C)(C)C(C)C(C)(C)C,068425-15-0,-9.22335514,CC(C(C)(C)C)C(C)(C)C(C)(C)SSSC(C)(C)C(C)(C)C(C)C(C)(C)C
1845,B-6567,dodecyl tetradecanoate,DFQOCHPHORLRID-UHFFFAOYSA-N,CCCCCCCCCCCCCC(=O)OCCCCCCCCCCCC,002040-64-4,-8.21285111,CCCCCCCCCCCCCC(=O)OCCCCCCCCCCCC
1846,B-6568,(Z)-3-methyl-5-(2.2.3-trimethyl-1-cyclopent-3-enyl)pent-4-en-2-ol,RNLHVODSMDJCBR-VURMDHGXSA-N,CC1=CCC(C1(C)C)/C=C\C(C)C(C)O,067801-20-1,-3.786024534,CC1=CCC(C=CC(C)C(C)O)C1(C)C
1847,B-6569,2-(2-ethylhexoxymethyl)oxirane,BBBUAWSVILPJLL-UHFFFAOYSA-N,CCCCC(CC)COCC1CO1,002461-15-6,-3.114861898,CCCCC(CC)COCC1CO1
1848,B-6570,3.7-dimethyloct-6-enyl acetate,JOZKFWLRHCDGJA-UHFFFAOYSA-N,CC(CCC=C(C)C)CCOC(=O)C,000150-84-5,-4.095935664,CC(=O)OCCC(C)CCC=C(C)C
1849,B-6571,trimethyl-(methyl-tetradecyl-trimethylsilyloxysilyl)oxysilane,CIAZJIQGPOGZDS-UHFFFAOYSA-N,CCCCCCCCCCCCCC[Si](C)(O[Si](C)(C)C)O[Si](C)(C)C,286938-65-6,-6.776994488,CCCCCCCCCCCCCC[Si](C)(O[Si](C)(C)C)O[Si](C)(C)C
1850,B-6572,1-[4-(2-methylpropyl)phenyl]ethanone,KEAGRYYGYWZVPC-UHFFFAOYSA-N,CC(C)CC1=CC=C(C=C1)C(=O)C,038861-78-8,-3.371087082,CC(=O)c1ccc(CC(C)C)cc1
1851,B-6573,3.3.4.4.5.5.6.6.7.7.8.8.8-tridecafluorooctyl 2-methylprop-2-enoate,CDXFIRXEAJABAZ-UHFFFAOYSA-N,CC(=C)C(=O)OCCC(C(C(C(C(C(F)(F)F)(F)F)(F)F)(F)F)(F)F)(F)F,002144-53-8,-7.01241648,C=C(C)C(=O)OCCC(F)(F)C(F)(F)C(F)(F)C(F)(F)C(F)(F)C(F)(F)F
1852,B-6574,3.4.5-Trifluorophenol,ZRTWIJKGTUGZJY-UHFFFAOYSA-N,C1=C(C=C(C(=C1F)F)F)O,099627-05-1,-0.153613504,Oc1cc(F)c(F)c(F)c1
1853,B-6575,2-(Trifluoromethyl)aniline,VBLXCTYLWZJBKA-UHFFFAOYSA-N,C1=CC=C(C(=C1)C(F)(F)F)N,000088-17-5,-1.675687517,Nc1ccccc1C(F)(F)F
1854,B-6576,2-methylbutan-2-yl 2-ethylhexaneperoxoate,IFXDUNDBQDXPQZ-UHFFFAOYSA-N,CCCCC(CC)C(=O)OOC(C)(C)CC,000686-31-7,-4.116869138,CCCCC(CC)C(=O)OOC(C)(C)CC
1855,B-6577,(E)-dodec-2-enal,SSNZFFBDIMUILS-ZHACJKMWSA-N,CCCCCCCCC/C=C/C=O,020407-84-5,-4.754294024,CCCCCCCCCC=CC=O
1856,B-6578,2-[(1S.5R)-7.7-dimethyl-4-bicyclo[3.1.1]hept-3-enyl]ethanol,ROKSAUSPJGWCSM-UWVGGRQHSA-N,CC1([C@H]2CC=C([C@@H]1C2)CCO)C,035836-73-8,-2.699460311,CC1(C)C2CC=C(CCO)C1C2
1857,B-6579,(2-methyl-6-methylideneoct-7-en-2-yl) acetate,DCXXKSXLKWAZNO-UHFFFAOYSA-N,CC(=O)OC(C)(C)CCCC(=C)C=C,001118-39-4,-3.597413844,C=CC(=C)CCCC(C)(C)OC(C)=O
1858,B-6580,1-(4-methylphenyl)propan-1-one,PATYHUUYADUHQS-UHFFFAOYSA-N,CCC(=O)C1=CC=C(C=C1)C,005337-93-9,-2.433667869,CCC(=O)c1ccc(C)cc1
1859,B-6581,Methyl 2.6.6-trimethylcyclohex-2-ene-1-carboxylate,NVAGRWXDIIKUBU-UHFFFAOYSA-N,CC1=CCCC(C1C(=O)OC)(C)C,028043-10-9,-2.900860649,COC(=O)C1C(C)=CCCC1(C)C
1860,B-6582,2.4-Dimethylaniline,CZZZABOKJQXEBO-UHFFFAOYSA-N,CC1=CC(=C(C=C1)N)C,000095-68-1,-1.335248655,Cc1ccc(N)c(C)c1
1861,B-6583,dodecanenitrile,VXCUURYYWGCLIH-UHFFFAOYSA-N,CCCCCCCCCCCC#N,002437-25-4,-5.289962762,CCCCCCCCCCCC#N
1862,B-6584,2-methyldecanenitrile,XPCSGXMQGQGBKU-UHFFFAOYSA-N,CCCCCCCCC(C)C#N,069300-15-8,-4.632405374,CCCCCCCCC(C)C#N
1863,B-6585,1-[3-(trifluoromethyl)phenyl]ethanone,ABXGMGUHGLQMAW-UHFFFAOYSA-N,CC(=O)C1=CC(=CC=C1)C(F)(F)F,000349-76-8,-2.482109994,CC(=O)c1cccc(C(F)(F)F)c1
1864,B-6586,2-hydroperoxy-4-methyl-1-propan-2-ylcyclohexane,OZTWDFWAMMUDHQ-UHFFFAOYSA-N,CC1CCC(C(C1)OO)C(C)C,026762-92-5,-2.588818616,CC1CCC(C(C)C)C(OO)C1
1865,B-6587,ethenyl-tri(prop-1-en-2-yloxy)silane,GBFVZTUQONJGSL-UHFFFAOYSA-N,CC(=C)O[Si](C=C)(OC(=C)C)OC(=C)C,015332-99-7,0.64522449,C=C[Si](OC(=C)C)(OC(=C)C)OC(=C)C
1866,B-6588,2.2-dimethyl-3-(3-methylphenyl)propan-1-ol,FYMOBFDUZIDKMI-UHFFFAOYSA-N,CC1=CC(=CC=C1)CC(C)(C)CO,103694-68-4,-2.826532058,Cc1cccc(CC(C)(C)CO)c1
1867,B-6589,2-phenylacetaldehyde,DTUQWGWMVIHBKE-UHFFFAOYSA-N,C1=CC=C(C=C1)CC=O,000122-78-1,-0.824453439,O=CCc1ccccc1
1868,B-6590,2.6-ditert-butyl-4-(dimethylaminomethyl)phenol,VMZVBRIIHDRYGK-UHFFFAOYSA-N,CC(C)(C)C1=CC(=CC(=C1O)C(C)(C)C)CN(C)C,000088-27-7,-2.711382412,CN(C)Cc1cc(C(C)(C)C)c(O)c(C(C)(C)C)c1
1869,B-6591,4-Chloro-2-fluoroaniline,CSFDTBRRIBJILD-UHFFFAOYSA-N,C1=CC(=C(C=C1Cl)F)N,000596-49-6,-7.534663858,Nc1ccc(Cl)cc1F
1870,B-6592,1-[(1R.2R.5S.7R)-2.6.6.8-tetramethyl-9-tricyclo[5.3.1.01.5]undec-8-enyl]ethanone,YBUIAJZFOGJGLJ-SWRJLBSHSA-N,C[C@@H]1CC[C@@H]2[C@@]13C[C@H](C2(C)C)C(=C(C3)C(=O)C)C,032388-55-9,-4.613475,CC(=O)C1=C(C)C2CC3(C1)C(C)CCC3C2(C)C
1871,B-6593,2.3.4-Trimethylphenol,XRUGBBIQLIVCSI-UHFFFAOYSA-N,CC1=C(C(=C(C=C1)O)C)C,000526-85-2,-4.348825589,Cc1ccc(O)c(C)c1C
1872,B-6594,N.N-Diethylhydroxylamine,FVCOIAYSJZGECG-UHFFFAOYSA-N,CCN(CC)O,003710-84-7,0.703636782,CCN(O)CC
1873,B-6595,3.4-DIMETHYLBENZALDEHYDE,POQJHLBMLVTHAU-UHFFFAOYSA-N,CC1=C(C=C(C=C1)C=O)C,005973-71-7,-2.277033137,Cc1ccc(C=O)cc1C
1874,B-6596,Phenylmethyl formate,UYWQUFXKFGHYNT-UHFFFAOYSA-N,C1=CC=C(C=C1)COC=O,000104-57-4,-1.673119803,O=COCc1ccccc1
1875,B-6597,3.7-dimethyloctanenitrile,SAPMLSXAXRULJB-UHFFFAOYSA-N,CC(C)CCCC(C)CC#N,040188-41-8,-3.587733635,CC(C)CCCC(C)CC#N
1876,B-6598,2.2-dimethyl-3-phenylpropan-1-ol,VNGAHMPMLRTSLF-UHFFFAOYSA-N,CC(C)(CC1=CC=CC=C1)CO,013351-61-6,-2.042310649,CC(C)(CO)Cc1ccccc1
1877,B-6599,2-(Bis(2-ethylhexyl)amino)ethanol,FMFWSIARXFCACS-UHFFFAOYSA-N,CCCCC(CC)CN(CCO)CC(CC)CCCC,000101-07-5,-4.94240707,CCCCC(CC)CN(CCO)CC(CC)CCCC
1878,B-6600,3-chloroprop-1-en-2-ylbenzene,QQGZSWNELYFQPD-UHFFFAOYSA-N,C=C(CCl)C1=CC=CC=C1,030030-25-2,-4.792685163,C=C(CCl)c1ccccc1
1879,B-6601,3.3.4.4.5.5.6.6.7.7.8.8.8-tridecafluorooctyl prop-2-enoate,VPKQPPJQTZJZDB-UHFFFAOYSA-N,C=CC(=O)OCCC(C(C(C(C(C(F)(F)F)(F)F)(F)F)(F)F)(F)F)(F)F,017527-29-6,-6.354164839,C=CC(=O)OCCC(F)(F)C(F)(F)C(F)(F)C(F)(F)C(F)(F)C(F)(F)F
1880,B-6602,methyl 4-methyl-1-propan-2-ylbicyclo[2.2.2]oct-2-ene-8-carboxylate,NXAJZPARDMDLKH-UHFFFAOYSA-N,CC(C)C12CCC(C=C1)(C(C2)C(=O)OC)C,068966-86-9,-4.200863391,COC(=O)C1CC2(C(C)C)C=CC1(C)CC2
1881,B-6603,N-methyl-1-naphthalen-1-ylmethanamine,MQRIUFVBEVFILS-UHFFFAOYSA-N,CNCC1=CC=CC2=CC=CC=C21,014489-75-9,-1.71509483,CNCc1cccc2ccccc12
1882,B-6604,2.4-Dimethyl-1-nitrobenzene,BBUPBICWUURTNP-UHFFFAOYSA-N,CC1=CC(=C(C=C1)[N+](=O)[O-])C,000089-87-2,-3.055598458,Cc1ccc([N+](=O)[O-])c(C)c1
1883,B-6605,3-Methylbut-2-enal,SEPQTYODOKLVSB-UHFFFAOYSA-N,CC(=CC=O)C,000107-86-8,0.116505812,CC(C)=CC=O
1884,B-6606,3-Methylbut-3-en-1-ol,CPJRRXSHAYUTGL-UHFFFAOYSA-N,CC(=C)CCO,000763-32-6,0.019070919,C=C(C)CCO
1885,B-6607,1.2-Dimethyl-3-nitrobenzene,FVHAWXWFPBPFOS-UHFFFAOYSA-N,CC1=C(C(=CC=C1)[N+](=O)[O-])C,000083-41-0,-3.111264237,Cc1cccc([N+](=O)[O-])c1C
1886,B-6608,2-Methyl-4-phenyl-1.3-dioxolane,YPPGSWWESBCSCT-UHFFFAOYSA-N,CC1OCC(O1)C2=CC=CC=C2,033941-99-0,-1.805449551,CC1OCC(c2ccccc2)O1
1887,B-6609,[(Z)-hex-3-enyl] cyclopropanecarboxylate,AQALQDMWXUIMHX-ARJAWSKDSA-N,CC/C=C\CCOC(=O)C1CC1,188570-78-7,-2.924886873,CCC=CCCOC(=O)C1CC1
1888,B-6610,2-Ethylhexyl (2S)-2-hydroxypropanoate,FECDACOUYKFOOP-RGURZIINSA-N,CCCCC(CC)COC(=O)[C@H](C)O,186817-80-1,-2.673523563,CCCCC(CC)COC(=O)C(C)O
1889,B-6611,6.10.14-trimethylpentadec-5-en-2-one,CKJHJTOHWZLGFY-UHFFFAOYSA-N,CC(C)CCCC(C)CCCC(=CCCC(=O)C)C,003689-69-8,-5.124611807,CC(=O)CCC=C(C)CCCC(C)CCCC(C)C
1890,B-6612,(5Z)-cyclohexadec-5-en-1-one,ABRIMXGLNHCLIP-VURMDHGXSA-N,C1CCCCCC(=O)CCC/C=C\CCCC1,037609-25-9,-5.560727869,O=C1CCCC=CCCCCCCCCCC1
1891,B-6613,(E)-dec-4-enal,CWRKZMLUDFBPAO-VOTSOKGWSA-N,CCCCC/C=C/CCC=O,065405-70-1,-3.301738952,CCCCCC=CCCC=O
1892,B-6614,4-chlorobenzonitrile,GJNGXPDXRVXSEH-UHFFFAOYSA-N,C1=CC(=CC=C1C#N)Cl,000623-03-0,-2.749326083,N#Cc1ccc(Cl)cc1
1893,B-6615,6-methylspiro[[1.3]dioxolo[4.5-f][1.3]benzothiazole-2.1'-cyclohexane],TYNPXUCEDICLGT-UHFFFAOYSA-N,CC1=NC2=CC3=C(C=C2S1)OC4(O3)CCCCC4,068480-11-5,-6.074779882,Cc1nc2cc3c(cc2s1)OC1(CCCCC1)O3
1894,B-6616,(4E)-4.8-dimethyldeca-4.9-dienal,QVEOSYKPYFNQAZ-XYOKQWHBSA-N,CC(CC/C=C(\C)/CCC=O)C=C,071077-31-1,-3.793572196,C=CC(C)CCC=C(C)CCC=O
1895,B-6617,methyl non-2-ynoate,NTLJTUMJJWVCTL-UHFFFAOYSA-N,CCCCCCC#CC(=O)OC,000111-80-8,-3.651872177,CCCCCCC#CC(=O)OC
1896,B-6618,3-(1-Ethoxyethoxy)-3.7-dimethylocta-1.6-diene,ZJPKYCLAROITRY-UHFFFAOYSA-N,CCOC(C)OC(C)(CCC=C(C)C)C=C,040910-49-4,-3.976398331,C=CC(C)(CCC=C(C)C)OC(C)OCC
1897,B-6619,3.7-dimethylocta-1.6-dien-3-yl propanoate,WAQIIHCCEMGYKP-UHFFFAOYSA-N,CCC(=O)OC(C)(CCC=C(C)C)C=C,000144-39-8,-4.382355002,C=CC(C)(CCC=C(C)C)OC(=O)CC
1898,B-6620,2-(2.2.3-trimethylcyclopent-3-en-1-yl)acetonitrile,YYJOTFQPYNOYAB-UHFFFAOYSA-N,CC1=CCC(C1(C)C)CC#N,015373-31-6,-2.647516862,CC1=CCC(CC#N)C1(C)C
1899,B-6622,(6E)-3.7-dimethylnona-1.6-dien-3-ol,KRLBLPBPZSSIGH-CSKARUKUSA-N,CC/C(=C/CCC(C)(C=C)O)/C,010339-55-6,-2.409124535,C=CC(C)(O)CCC=C(C)CC
1900,B-6623,11.12.13.14.17.17-hexachloro-5-oxaheptacyclo[7.6.1.13.7.111.14.02.8.04.6.010.15]octadec-12-ene,LHXXRRBCJFYIRV-UHFFFAOYSA-N,C1C2C3C4CC(C3C1C5C2C6(C(=C(C5(C6(Cl)Cl)Cl)Cl)Cl)Cl)C7C4O7,054423-67-5,-7.507307296,ClC1=C(Cl)C2(Cl)C3C4CC(C5C6CC(C7OC67)C45)C3C1(Cl)C2(Cl)Cl
1901,B-6624,(5E)-3-methylcyclopentadec-5-en-1-one,NKMKFQCVDZVEJR-CSKARUKUSA-N,CC1C/C=C/CCCCCCCCCC(=O)C1,063314-79-4,-1.67554068,CC1CC=CCCCCCCCCCC(=O)C1
1902,B-6625,(1E)-3-methyl-1-(2.6.6-trimethyl-1-cyclohexenyl)penta-1.4-dien-3-ol,PZGYHDPZANRCSM-PKNBQFBNSA-N,CC1=C(C(CCC1)(C)C)/C=C/C(C)(C=C)O,005208-93-5,-3.164143991,C=CC(C)(O)C=CC1=C(C)CCCC1(C)C
1903,B-6626,1.2-Dimethyl-4-nitrobenzene,HFZKOYWDLDYELC-UHFFFAOYSA-N,CC1=C(C=C(C=C1)[N+](=O)[O-])C,000099-51-4,-3.179450099,Cc1ccc([N+](=O)[O-])cc1C
1904,B-6627,N-(3-dimethylaminopropyl)-N'.N'-dimethylpropane-1.3-diamine,BXYVQNNEFZOBOZ-UHFFFAOYSA-N,CN(C)CCCNCCCN(C)C,006711-48-4,0.355787161,CN(C)CCCNCCCN(C)C
1905,B-6628,1-Methylpiperidin-4-ol,BAUWRHPMUVYFOD-UHFFFAOYSA-N,CN1CCC(CC1)O,000106-52-5,-0.037776015,CN1CCC(O)CC1
1906,B-6629,1-chloro-2-nitro-4-(trifluoromethyl)benzene,TZGFQIXRVUHDLE-UHFFFAOYSA-N,C1=CC(=C(C=C1C(F)(F)F)[N+](=O)[O-])Cl,000121-17-5,-2.533707368,O=[N+]([O-])c1cc(C(F)(F)F)ccc1Cl
1907,B-6630,2-(chloro-fluoromethoxy)-1.1.1.2-tetrafluoroethane,GGEBMRHBGQLKGJ-UHFFFAOYSA-N,C(C(F)(F)F)(OC(F)Cl)F,006358-37-8,-7.54997702,FC(Cl)OC(F)C(F)(F)F
1908,B-6631,(4Z)-5.9-dimethyldeca-4.8-dienal,MMLYERLRGHVBEK-WQLSENKSSA-N,CC(=CCC/C(=C\CCC=O)/C)C,000762-26-5,-3.53829969,CC(C)=CCCC(C)=CCCC=O
1909,B-6632,1-(6-tert-butyl-1.1-dimethyl-2.3-dihydroinden-4-yl)ethanone,IKTHMQYJOWTSJO-UHFFFAOYSA-N,CC(=O)C1=C2CCC(C2=CC(=C1)C(C)(C)C)(C)C,013171-00-1,-4.870862654,CC(=O)c1cc(C(C)(C)C)cc2c1CCC2(C)C
1910,B-6633,prop-2-enyl heptanoate,SJWKGDGUQTWDRV-UHFFFAOYSA-N,CCCCCCC(=O)OCC=C,000142-19-8,-3.597621216,C=CCOC(=O)CCCCCC
1911,B-6634,6-fluoro-2-(oxiran-2-yl)chroman,GVZDIJGBXSDSEP-WDEREUQCSA-N,C1CC2C(CC1F)CC[C@H](O2)[C@H]3CO3,197706-51-7,-2.934152192,FC1CCC2OC(C3CO3)CCC2C1