,C_ID,Name,InChIKey,SMILES,CAS,LogS,smiles_canon
544,B-2750,HYDRASTINE,JZUTXVTYJDCMDU-MOPGFXCFSA-N,COC1C(OC)CCC2C1C(=O)O[C@@H]2[C@@H]1N(C)CCC2C1CC1OCOC1C2,000118-08-1,-4.106530854,COC1CCC2C(C3C4CC5OCOC5CC4CCN3C)OC(=O)C2C1OC
545,B-2753,1.2-Cyclohexanedione. 4-methyl-. dioxime,KQGMPJHDAPHKNY-CDJQDVQCSA-N,CC1CCC(=N/O)\C(C1)=N\O,018310-19-5,-1.662174308,CC1CCC(=NO)C(=NO)C1
546,B-2756,Bromcresol Green,FRPHFZCDPYBUAU-UHFFFAOYSA-N,CC1=C(C(=C(C=C1C2(C3=CC=CC=C3S(=O)(=O)O2)C4=CC(=C(C(=C4C)Br)O)Br)Br)O)Br,000076-60-8,-2.065716616,Cc1c(C2(c3cc(Br)c(O)c(Br)c3C)OS(=O)(=O)c3ccccc32)cc(Br)c(O)c1Br
547,B-2758,C.I. DISPERSE RED 60,MHXFWEJMQVIWDH-UHFFFAOYSA-N,C1=CC=C(C=C1)OC2=C(C3=C(C(=C2)O)C(=O)C4=CC=CC=C4C3=O)N,017418-58-5,-8.714080787,Nc1c(Oc2ccccc2)cc(O)c2c1C(=O)c1ccccc1C2=O
548,B-2762,Propylthiouracil,KNAHARQHSZJURB-UHFFFAOYSA-N,CCCC1=CC(=O)N=C(N1)S,000051-52-5,-2.151854853,CCCc1cc(=O)nc(S)[nH]1
549,B-2764,3.7-DIMETHYL URIC ACID,HCUXKVFCFSVKHK-UHFFFAOYSA-N,CN1C2=C(C(=O)NC(=O)N2C)NC1=O,055441-63-9,-2.568356722,Cn1c(=O)[nH]c(=O)c2[nH]c(=O)n(C)c21
550,B-2766,6'.7'.10.11-TETRAMETHOXYEMETAN,AUVVAXYIELKVAI-CKBKHPSWSA-N,CC[C@H]1CN2CCC3=CC(=C(C=C3[C@@H]2C[C@@H]1C[C@@H]4C5=CC(=C(C=C5CCN4)OC)OC)OC)OC,000483-18-1,-2.688833848,CCC1CN2CCc3cc(OC)c(OC)cc3C2CC1CC1NCCc2cc(OC)c(OC)cc21
551,B-2772,4-CHLOROANILINE-3-SULFONIC_ACID,VPXCXBHLKDPWQV-UHFFFAOYSA-N,C1=CC(=C(C=C1N)S(=O)(=O)O)Cl,000088-43-7,-1.26421166,Nc1ccc(Cl)c(S(=O)(=O)O)c1
552,B-2773,Brodifacoum,LNDUTAIPEYOCDF-UHFFFAOYSA-N,C1C(CC2=CC=CC=C2C1C3=C(OC4=CC=CC=C4C3=O)O)C5=CC=C(C=C5)C6=CC=C(C=C6)Br,056073-10-0,-8.139075014,O=c1c(C2CC(c3ccc(-c4ccc(Br)cc4)cc3)Cc3ccccc32)c(O)oc2ccccc12
553,B-2778,Spiro[benzofuran-2(3H). 1'-[2]cyclohexene]-3.4'-,VHXBNOUUDLLFER-UHFFFAOYSA-N,CCOC1=CC(=O)CC(C12C(=O)C3=C(O2)C(=C(C=C3OC)OC)Cl)C,003260-51-3,-4.999763263,CCOC1=CC(=O)CC(C)C12Oc1c(Cl)c(OC)cc(OC)c1C2=O
554,B-2783,6-Chloropurine,ZKBQDFAWXLTYKS-UHFFFAOYSA-N,C1=NC2=NC=NC2=C(N1)Cl,000087-42-3,-1.490127105,Clc1[nH]cnc2ncnc1-2
555,B-2784,5-benzoyl-4-hydroxy-2-methoxybenzenesulfonic acid,CXVGEDCSTKKODG-UHFFFAOYSA-N,COC1=C(C=C(C(=C1)O)C(=O)C2=CC=CC=C2)S(=O)(=O)O,004065-45-6,-0.091047603,COc1cc(O)c(C(=O)c2ccccc2)cc1S(=O)(=O)O
556,B-2791,2-Butenedioic acid. 2.3-dihydroxy-. (E)-,BZCOSCNPHJNQBP-OWOJBTEDSA-N,OC(=O)C(\O)=C(/O)C(O)=O,000133-38-0,-1.699175365,O=C(O)C(O)=C(O)C(=O)O
557,B-2796,Thymolphthalein,LDKDGDIWEUUXSH-UHFFFAOYSA-N,CC1=CC(=C(C=C1C2(C3=CC=CC=C3C(=O)O2)C4=CC(=C(C=C4C)O)C(C)C)C(C)C)O,000125-20-2,-2.634023594,Cc1cc(O)c(C(C)C)cc1C1(c2cc(C(C)C)c(O)cc2C)OC(=O)c2ccccc21
558,B-2812,1.3-DIMETHYL URIC ACID,OTSBKHHWSQYEHK-UHFFFAOYSA-N,CN1C2=C(C(=O)N(C1=O)C)NC(=O)N2,000944-73-0,-2.576629248,Cn1c(=O)c2[nH]c(=O)[nH]c2n(C)c1=O
559,B-2819,Phenylalanine. 2-hydroxy-,WRFPVMFCRNYQNR-UHFFFAOYSA-N,C1=CC=C(C(=C1)CC(C(=O)O)N)O,000709-16-0,-1.957104229,NC(Cc1ccccc1O)C(=O)O
560,B-2820,N1-(5-BR-2-PYRIDYL)SULFANILAMIDE,CYSTWBDBPLFTEV-UHFFFAOYSA-N,C1=CC(=CC=C1N)S(=O)(=O)NC2=NC=C(C=C2)Br,016805-99-5,-3.936341747,Nc1ccc(S(=O)(=O)Nc2ccc(Br)cn2)cc1
561,B-2821,NITROSOGUANIDINE,WTLKTXIHIHFSGU-UHFFFAOYSA-N,C(=NN=O)(N)N,000674-81-7,-1.976345048,NC(N)=NN=O
562,B-2823,ACETIC ACID. 3-[4-(AMINOSULFONYL)PHENYL]PROPYL E,SUUOUMWENBLKDE-UHFFFAOYSA-N,CC(=O)OCCCC1=CC=C(C=C1)S(=O)(=O)N,135832-47-2,-2.206336682,CC(=O)OCCCc1ccc(S(N)(=O)=O)cc1
563,B-2824,Thiacloprid,HOKKPVIRMVDYPB-UHFFFAOYSA-N,C1CSC(=NC#N)N1CC2=CN=C(C=C2)Cl,111988-49-9,-3.135467884,N#CN=C1SCCN1Cc1ccc(Cl)nc1
564,B-2826,THIOPHANATE-METHYL,QGHREAKMXXNCOA-UHFFFAOYSA-N,COC(=O)N=C(NC1=CC=CC=C1NC(=NC(=O)OC)S)S,023564-05-8,-4.109639435,COC(=O)N=C(S)Nc1ccccc1NC(S)=NC(=O)OC
565,B-2827,OCTAHYDRO-1.3.5.7-TETRANITRO-1.3.5.7-TETRAZOC*,UZGLIIJVICEWHF-UHFFFAOYSA-N,C1N(CN(CN(CN1[N+](=O)[O-])[N+](=O)[O-])[N+](=O)[O-])[N+](=O)[O-],002691-41-0,-4.772556397,O=[N+]([O-])N1CN([N+](=O)[O-])CN([N+](=O)[O-])CN([N+](=O)[O-])C1
566,B-2831,7-chloro-4.6-dimethoxy-5'-methyl-3'-propoxyspiro[1-benzofuran-2.4'-cyclohex-2-ene]-1'.3-dione,CFOHRWBARJOUIP-UHFFFAOYSA-N,CCCOC1=CC(=O)CC(C12C(=O)C3=C(O2)C(=C(C=C3OC)OC)Cl)C,065267-24-5,-4.523826301,CCCOC1=CC(=O)CC(C)C12Oc1c(Cl)c(OC)cc(OC)c1C2=O
567,B-2833,Pinoxaden,MGOHCFMYLBAPRN-UHFFFAOYSA-N,CCC1=CC(=CC(=C1C2=C(N3CCOCCN3C2=O)OC(=O)C(C)(C)C)CC)C,243973-20-8,-3.301594212,CCc1cc(C)cc(CC)c1-c1c(OC(=O)C(C)(C)C)n2n(c1=O)CCOCC2
568,B-2837,Benzoic acid. 3.5-diamino-,UENRXLSRMCSUSN-UHFFFAOYSA-N,C1=C(C=C(C=C1N)N)C(=O)O,000535-87-5,-1.140879272,Nc1cc(N)cc(C(=O)O)c1
569,B-2839,3.9-Acridinediamine. 7-ethoxy-. monohydrate,CIKWKGFPFXJVGW-UHFFFAOYSA-N,CCOC1=CC2=C(C3=C(C=C(C=C3)N)N=C2C=C1)N,000442-16-0,-0.580178106,CCOc1ccc2nc3cc(N)ccc3c(N)c2c1
570,B-2840,Diazenedicarboxamide,XOZUGNYVDXMRKW-UHFFFAOYSA-N,C(=O)(N)N=NC(=O)N,000123-77-3,-3.520689355,NC(=O)N=NC(N)=O
571,B-2847,Deferasirox,FMSOAWSKCWYLBB-VBGLAJCLSA-N,C1=C/C(=C/2\N/C(=C\3/C=CC=CC3=O)/N(N2)C4=CC=C(C=C4)C(=O)O)/C(=O)C=C1,201530-41-8,-2.970079428,O=C1C=CC=CC1=C1NC(=C2C=CC=CC2=O)N(c2ccc(C(=O)O)cc2)N1
572,B-2853,Benzenesulfonamide. 4-amino-N-cyano-,NXBPVAODVMAXNK-UHFFFAOYSA-N,C1=CC(=CC=C1N)S(=O)(=O)NC#N,000116-47-2,-1.710597709,N#CNS(=O)(=O)c1ccc(N)cc1
573,B-2855,1.2-Naphthalenedione. 4-amino-,IGONFFFOEMASIA-UHFFFAOYSA-N,C1=CC=C2C(=C1)C(=CC(=O)C2=O)N,005460-35-5,-3.840532648,NC1=CC(=O)C(=O)c2ccccc21
574,B-2860,DIMETHOMORPH,QNBTYORWCCMPQP-JXAWBTAJSA-N,COC1=C(C=C(C=C1)/C(=C\C(=O)N2CCOCC2)/C3=CC=C(C=C3)Cl)OC,110488-70-5,-3.896721087,COc1ccc(C(=CC(=O)N2CCOCC2)c2ccc(Cl)cc2)cc1OC
575,B-2863,Guanidine. 2-benzoxazolyl-,FNGZREDJXWXRBW-UHFFFAOYSA-N,C1=CC=C2C(=C1)N=C(O2)N=C(N)N,039123-82-5,-2.764513977,NC(N)=Nc1nc2ccccc2o1
576,B-2865,Carbamic acid. 1.6-hexanediylbis-. bis(2-hydroxy,MUFHLECIHYAUAE-UHFFFAOYSA-N,C(CCCNC(=O)OCCO)CCNC(=O)OCCO,013027-07-1,-0.921820198,O=C(NCCCCCCNC(=O)OCCO)OCCO
577,B-2867,DI(P-AMINOPHENYL)SULFONE,MQJKPEGWNLWLTK-UHFFFAOYSA-N,S(=O)(=O)(C2CCC(N)CC2)C1CCC(N)CC1,000080-08-0,-2.815193123,NC1CCC(S(=O)(=O)C2CCC(N)CC2)CC1
578,B-2870,2-PROPENOIC ACID. 2-METHYL-. 7.7.9(OR 7.9.9)-TRI,UEKHZPDUBLCUHN-UHFFFAOYSA-N,CC(CCNC(=O)OCCOC(=O)C(=C)C)CC(C)(C)CNC(=O)OCCOC(=O)C(=C)C,072869-86-4,-4.195502982,C=C(C)C(=O)OCCOC(=O)NCCC(C)CC(C)(C)CNC(=O)OCCOC(=O)C(=C)C
579,B-2872,Indoxacarb,VBCVPMMZEGZULK-NRFANRHFSA-N,COC(=O)[C@]12CC3=C(C1=NN(CO2)C(=O)N(C4=CC=C(C=C4)OC(F)(F)F)C(=O)OC)C=CC(=C3)Cl,173584-44-6,-6.421472303,COC(=O)N(C(=O)N1COC2(C(=O)OC)Cc3cc(Cl)ccc3C2=N1)c1ccc(OC(F)(F)F)cc1
580,B-2875,1.7-DIMETHYL URIC ACID,NOFNCLGCUJJPKU-UHFFFAOYSA-N,CN1C2=C(NC1=O)NC(=O)N(C2=O)C,033868-03-0,-2.441374243,Cn1c(=O)[nH]c2[nH]c(=O)n(C)c2c1=O
581,B-2884,1H-Purine. 6-methyl-,SYMHUEFSSMBHJA-UHFFFAOYSA-N,CC1=C2C(=NC=N2)N=CN1,002004-03-7,0.173471694,Cc1[nH]cnc2ncnc1-2
582,B-2889,CREATINE,CVSVTCORWBXHQV-UHFFFAOYSA-N,CN(CC(=O)O)C(=N)N,000057-00-1,-0.993883538,CN(CC(=O)O)C(=N)N
583,B-2890,Benzenesulfonamide. 4-amino-N-(3-methyl-5-isoxaz,KBLGZYOVYFTAOB-UHFFFAOYSA-N,CC1=NOC(=C1)NS(=O)(=O)C2=CC=C(C=C2)N,017103-52-5,-2.386567558,Cc1cc(NS(=O)(=O)c2ccc(N)cc2)on1
584,B-2891,Glycocyamine,BPMFZUMJYQTVII-UHFFFAOYSA-N,C(C(=O)O)N=C(N)N,000352-97-6,-1.51229148,NC(N)=NCC(=O)O
585,B-2894,Emtricitabine,XQSPYNMVSIKCOC-NTSWFWBYSA-N,N2(C(=O)N=C(C(=C2)F)N)C1OC(SC1)CO,143491-57-0,-0.343918278,Nc1nc(=O)n(C2CSC(CO)O2)cc1F
586,B-2895,Mandipropamid,KWLVWJPJKJMCSH-UHFFFAOYSA-N,COC1=C(C=CC(=C1)CCNC(=O)C(C2=CC=C(C=C2)Cl)OCC#C)OCC#C,374726-62-2,-4.991531958,C#CCOc1ccc(CCNC(=O)C(OCC#C)c2ccc(Cl)cc2)cc1OC
587,B-2899,beta-Alanine. N-[[(4-nitrophenyl)amino]carbonyl],MYMZLBHZVRWYRE-UHFFFAOYSA-N,C1=CC(=CC=C1NC(=O)NCCC(=O)O)[N+](=O)[O-],000102-66-9,-2.704528,O=C(O)CCNC(=O)Nc1ccc([N+](=O)[O-])cc1
588,B-2903,2.3.4-TRIHYDROXYBENZOIC ACID,BRRSNXCXLSVPFC-UHFFFAOYSA-N,C1=CC(=C(C(=C1C(=O)O)O)O)O,000610-02-6,-2.230755374,O=C(O)c1ccc(O)c(O)c1O
589,B-2904,9H-PURIN-6-AMINE. 9-METHYL-,CKOMXBHMKXXTNW-UHFFFAOYSA-N,CNC1=NC=NC2=C1NC=N2,000443-72-1,-2.101770367,CNc1ncnc2nc[nH]c12
590,B-2906,Benzenesulfonamide. 4-amino-N-(5-nitro-2-pyridin,HUUWGFYTPQCOGD-UHFFFAOYSA-N,C1=CC(=CC=C1N)S(=O)(=O)NC2=NC=C(C=C2)[N+](=O)[O-],039588-36-8,-3.900573781,Nc1ccc(S(=O)(=O)Nc2ccc([N+](=O)[O-])cn2)cc1
591,B-2907,Fluazifop-P,YUVKUEAFAVKILW-SECBINFHSA-N,C[C@H](C(=O)O)OC1=CC=C(C=C1)OC2=NC=C(C=C2)C(F)(F)F,083066-88-0,-2.622798323,CC(Oc1ccc(Oc2ccc(C(F)(F)F)cn2)cc1)C(=O)O
592,B-2910,2-THIOPHENESULFONAMIDE. 5-[(3-HYDROXYPROPYL)THIO,FDKRNXKCWQSXGP-UHFFFAOYSA-N,C1=C(SC(=C1)S(=O)(=O)N)SCCCO,104437-99-2,-1.425997303,NS(=O)(=O)c1ccc(SCCCO)s1
593,B-2915,ACETIC ACID. 5-[4-(AMINOSULFONYL)PHENYL]PENTYL E,XHIANHOHSQCXSF-UHFFFAOYSA-N,CC(=O)OCCCCCC1=CC=C(C=C1)S(=O)(=O)N,135832-51-8,-2.37621185,CC(=O)OCCCCCc1ccc(S(N)(=O)=O)cc1
594,B-2921,Benzenesulfonic acid. 4-hydrazino-,IOMZCWUHFGMSEJ-UHFFFAOYSA-N,C1=CC(=CC=C1NN)S(=O)(=O)O,000098-71-5,-1.518744763,NNc1ccc(S(=O)(=O)O)cc1
595,B-2924,Miglitol,IBAQFPQHRJAVAV-ULAWRXDQSA-N,C1[C@@H]([C@H]([C@@H]([C@H](N1CCO)CO)O)O)O,072432-03-2,0.683547373,OCCN1CC(O)C(O)C(O)C1CO
596,B-2925,2-Aminophenol-4-sulfonic_acid,ULUIMLJNTCECJU-UHFFFAOYSA-N,C1=CC(=C(C=C1S(=O)(=O)O)N)O,000098-37-3,-1.276898177,Nc1cc(S(=O)(=O)O)ccc1O
597,B-2926,HYDRAMETHYLNON,IQVNEKKDSLOHHK-FNCQTZNRSA-N,CC1(CN=C(NC1)NN=C(/C=C/C2=CC=C(C=C2)C(F)(F)F)/C=C/C3=CC=C(C=C3)C(F)(F)F)C,067485-29-4,-7.916006263,CC1(C)CN=C(NN=C(C=Cc2ccc(C(F)(F)F)cc2)C=Cc2ccc(C(F)(F)F)cc2)NC1
598,B-2929,HYPOXANTHINE,FDGQSTZJBFJUBT-UHFFFAOYSA-N,C1=NC2=C(N1)C(=O)N=CN2,000068-94-0,-2.288791994,O=c1nc[nH]c2nc[nH]c12
599,B-2936,Glycine. N-[(4-methylphenyl)sulfonyl]-,VDKFCCZUCXYILI-UHFFFAOYSA-N,CC1=CC=C(C=C1)S(=O)(=O)NCC(=O)O,001080-44-0,-1.442803835,Cc1ccc(S(=O)(=O)NCC(=O)O)cc1
600,B-2947,7-METHYL URIC ACID,XJEJWDFDVPDMAS-UHFFFAOYSA-N,CN1C2=C(C(=O)NC(=O)N2)NC1=O,055441-71-9,-3.938186038,Cn1c(=O)[nH]c2c(=O)[nH]c(=O)[nH]c21
601,B-2950,Benzenesulfonic acid. 4-  4-(dimethylamino)pheny,IETWCRRCPURZOC-UHFFFAOYSA-N,CN(C)C1=CC=C(C=C1)N=NC2=CC=C(C=C2)S(=O)(=O)O,000502-02-3,-3.860515828,CN(C)c1ccc(N=Nc2ccc(S(=O)(=O)O)cc2)cc1
602,B-2952,BENZENESULFONAMIDE. 3-FLUORO-4-[(4-HYDROXYBUTYL),VCSKMHJYQZYTKJ-UHFFFAOYSA-N,C1=CC(=C(C=C1S(=O)(=O)N)F)SCCCCO,108966-75-2,-2.446148676,NS(=O)(=O)c1ccc(SCCCCO)c(F)c1
603,B-2954,3-fluoro-4-(2-hydroxyethylsulfanyl)benzenesulfonamide,IQXIDCDQCNFSPY-UHFFFAOYSA-N,C1=CC(=C(C=C1S(=O)(=O)N)F)SCCO,108966-70-7,-1.622023956,NS(=O)(=O)c1ccc(SCCO)c(F)c1
604,B-2969,2-THIOPHENESULFONAMIDE. 5-[(4-HYDROXYBUTYL)THIO],NXAORBGAUPAAQK-UHFFFAOYSA-N,C1=C(SC(=C1)S(=O)(=O)N)SCCCCO,135832-38-1,-1.45864597,NS(=O)(=O)c1ccc(SCCCCO)s1
605,B-2970,Sudan black B,YCUVUDODLRLVIC-UHFFFAOYSA-N,CC1(NC2=C3C(=C(C=C2)N=NC4=CC=C(C5=CC=CC=C54)N=NC6=CC=CC=C6)C=CC=C3N1)C,004197-25-5,-2.659488347,CC1(C)Nc2cccc3c(N=Nc4ccc(N=Nc5ccccc5)c5ccccc45)ccc(c23)N1
606,B-2971,Mycophenolate Mofetil,RTGDFNSFWBGLEC-SYZQJQIISA-N,CC1=C2COC(=O)C2=C(C(=C1OC)C/C=C(\C)/CCC(=O)OCCN3CCOCC3)O,128794-94-5,-4.003530664,COc1c(C)c2c(c(O)c1CC=C(C)CCC(=O)OCCN1CCOCC1)C(=O)OC2
607,B-2974,PHOSPHONOACETIC ACID,XUYJLQHKOGNDPB-UHFFFAOYSA-N,C(C(=O)O)P(=O)(O)O,004408-78-0,0.447064978,O=C(O)CP(=O)(O)O
608,B-2981,Benzoic acid. m-nitro-. (5-nitrofurfurylidene)hy,SUPOWFAECZKOCS-UHFFFAOYSA-N,C1=CC(=CC(=C1)[N+](=O)[O-])C(=O)NN=CC2=CC=C(O2)[N+](=O)[O-],092695-66-4,-4.991826068,O=C(NN=Cc1ccc([N+](=O)[O-])o1)c1cccc([N+](=O)[O-])c1
609,B-2982,3-fluoro-4-(3-hydroxypropylsulfanyl)benzenesulfonamide,YPMIELKCFBCTRA-UHFFFAOYSA-N,C1=CC(=C(C=C1S(=O)(=O)N)F)SCCCO,108966-74-1,-2.469527479,NS(=O)(=O)c1ccc(SCCCO)c(F)c1
610,B-2992,2.5-Piperazinedione. 3-[(4-hydroxyphenyl)methyl],QHLSAVHDWSYPEP-UHFFFAOYSA-N,C1C(=O)NC(C(=O)N1)CC2=CC=C(C=C2)O,005625-49-0,-1.041846483,O=C1CNC(=O)C(Cc2ccc(O)cc2)N1
611,B-2995,Urea. N-(2.3-dihydro-1.5-dimethyl-3-oxo-2-phenyl,MHDYKXPQKDDFFZ-UHFFFAOYSA-N,CC1=C(C(=O)N(N1C)C2=CC=CC=C2)NC(=O)NC3=CC=CC=C3,051944-15-1,-2.304234637,Cc1c(NC(=O)Nc2ccccc2)c(=O)n(-c2ccccc2)n1C
612,B-2997,BROMADIOLONE,IUZFQERQUZLNKQ-UHFFFAOYSA-N,C1=CC=C(C=C1)C(CC(C2=CC=C(C=C2)C3=CC=C(C=C3)Br)O)C4=C(OC5=CC=CC=C5C4=O)O,028772-56-7,-4.625246581,O=c1c(C(CC(O)c2ccc(-c3ccc(Br)cc3)cc2)c2ccccc2)c(O)oc2ccccc12
613,B-2999,BETA-D-GALACTOPYRANOSIDE. PHENYL,NEZJDVYDSZTRFS-RMPHRYRLSA-N,C1=CC=C(C=C1)O[C@H]2[C@@H]([C@H]([C@@H]([C@H](O2)CO)O)O)O,001464-44-4,-0.934464558,OCC1OC(Oc2ccccc2)C(O)C(O)C1O
614,B-3003,D-Xylose,PYMYPHUHKUWMLA-VPENINKCSA-N,C([C@H]([C@@H]([C@H](C=O)O)O)O)O,000058-86-6,0.567825499,O=CC(O)C(O)C(O)CO
615,B-3005,1-Naphthalenesulfonic acid. 4- (2-hydroxy-1-naph,JSAKRLDIZOGQTN-UHFFFAOYSA-N,C1=CC=C2C(=C1)C=CC(=C2N=NC3=CC=C(C4=CC=CC=C43)S(=O)(=O)O)O,018268-54-7,-1.162989257,O=S(=O)(O)c1ccc(N=Nc2c(O)ccc3ccccc23)c2ccccc12
616,B-3007,Chloramphenicol palmitate,PXKHGMGELZGJQE-ILBGXUMGSA-N,CCCCCCCCCCCCCCCC(=O)OC[C@H]([C@@H](C1=CC=C(C=C1)[N+](=O)[O-])O)NC(=O)C(Cl)Cl,000530-43-8,-2.728199133,CCCCCCCCCCCCCCCC(=O)OCC(NC(=O)C(Cl)Cl)C(O)c1ccc([N+](=O)[O-])cc1
617,B-3009,ACETIC ACID. 3-[[5-(AMINOSULFONYL)-2-THIENYL]SUL,OCRGOCPZGKKXCT-UHFFFAOYSA-N,CC(=O)OCCCS(=O)(=O)C1=CC=C(S1)S(=O)(=O)N,104438-04-2,-2.551277583,CC(=O)OCCCS(=O)(=O)c1ccc(S(N)(=O)=O)s1
618,B-3010,2-FURANSULFONAMIDE. 4-[(4-METHYLPHENYL)SULFONYL],VZNKQCCTTRDGPE-UHFFFAOYSA-N,CC1=CC=C(C=C1)S(=O)(=O)C2=COC(=C2)S(=O)(=O)N,128348-34-5,-3.780072367,Cc1ccc(S(=O)(=O)c2coc(S(N)(=O)=O)c2)cc1
619,B-3011,PHENOLSULPHONEPHTHALEIN,BELBBZDIHDAJOR-UHFFFAOYSA-N,C1=CC=C2C(=C1)C(OS2(=O)=O)(C3=CC=C(C=C3)O)C4=CC=C(C=C4)O,000143-74-8,-2.662978479,O=S1(=O)OC(c2ccc(O)cc2)(c2ccc(O)cc2)c2ccccc21
620,B-3014,BENZENESULFONAMIDE. 4-[(3-HYDROXYPROPYL)THIO]-3-,SFAAYTTWBINRON-UHFFFAOYSA-N,C1=CC(=C(C=C1S(=O)(=O)N)[N+](=O)[O-])SCCCO,108966-59-2,-3.465873387,NS(=O)(=O)c1ccc(SCCCO)c([N+](=O)[O-])c1
621,B-3015,1H-Purine-2.6-diamine,MSSXOMSJDRHRMC-UHFFFAOYSA-N,C1=NC2=NC(=NC(=C2N1)N)N,001904-98-9,-1.799919454,Nc1nc(N)c2[nH]cnc2n1
622,B-3017,BUTROXYDIM,ZOGDSYNXUXQGHF-XIEYBQDHSA-N,CCCC(=O)C1=C(C=C(C(=C1C)C2CC(=C(C(=O)C2)/C(=N/OCC)/CC)O)C)C,138164-12-2,-4.762700305,CCCC(=O)c1c(C)cc(C)c(C2CC(=O)C(C(CC)=NOCC)=C(O)C2)c1C
624,B-3022,ARGININE,ODKSFYDXXFIFQN-BYPYZUCNSA-N,N[C@@H](CCCNC(N)=N)C(O)=O,000074-79-3,0.019023237,N=C(N)NCCCC(N)C(=O)O
625,B-3025,N - (2 - CHLOROETHYL) - N - NITROSO - N' - [2 -,HRCMBQXJXXVUMU-UHFFFAOYSA-N,COC(CNC(=O)N(CCCl)N=O)N1C(=O)C(=CNC1=O)F,129085-57-0,-1.926471069,COC(CNC(=O)N(CCCl)N=O)n1c(=O)[nH]cc(F)c1=O
626,B-3028,Mesotrione,KPUREKXXPHOJQT-UHFFFAOYSA-N,CS(=O)(=O)C1=CC(=C(C=C1)C(=O)C2C(=O)CCCC2=O)[N+](=O)[O-],104206-82-8,-3.326489476,CS(=O)(=O)c1ccc(C(=O)C2C(=O)CCCC2=O)c([N+](=O)[O-])c1
627,B-3030,Hydrazinecarboxamide. 2-[(4-hydroxy-3-methoxyphe,LNACHOJLTKNOHU-UHFFFAOYSA-N,COC1=C(C=CC(=C1)C=NNC(=O)N)O,016742-60-2,-3.542431189,COc1cc(C=NNC(N)=O)ccc1O
628,B-3034,.ALPHA.-D-GLUCOPYRANOSE. PENTAACETATE,LPTITAGPBXDDGR-IBEHDNSVSA-N,CC(=O)OC[C@H]1O[C@@H](OC(C)=O)[C@H](OC(C)=O)[C@@H](OC(C)=O)[C@@H]1OC(C)=O,000604-69-3,-2.637211674,CC(=O)OCC1OC(OC(C)=O)C(OC(C)=O)C(OC(C)=O)C1OC(C)=O
629,B-3041,2-THIOPHENESULFONAMIDE. 4-[(4-METHYLPHENYL)SULFO,CPVNPDGQJBJFKS-UHFFFAOYSA-N,CC1=CC=C(C=C1)S(=O)(=O)C2=CSC(=C2)S(=O)(=O)N,128348-32-3,-4.024471985,Cc1ccc(S(=O)(=O)c2csc(S(N)(=O)=O)c2)cc1
630,B-3055,2.5-Furandicarboxylic acid,CHTHALBTIRVDBM-UHFFFAOYSA-N,C1=C(OC(=C1)C(=O)O)C(=O)O,003238-40-2,-2.193402903,O=C(O)c1ccc(C(=O)O)o1
631,B-3056,methyl 2-(3-hydroxypropylsulfanyl)-5-sulfamoylbenzoate,SYBOVEKRUUVUTO-UHFFFAOYSA-N,COC(=O)C1=C(C=CC(=C1)S(=O)(=O)N)SCCCO,108966-66-1,-2.370883017,COC(=O)c1cc(S(N)(=O)=O)ccc1SCCCO
632,B-3060,Heptanoic acid. 7-benzenesulfonylamino,VYASIDRVJHKUNA-UHFFFAOYSA-N,C1=CC=C(C=C1)S(=O)(=O)NCCCCCCC(=O)O,123469-53-4,-2.047153131,O=C(O)CCCCCCNS(=O)(=O)c1ccccc1
633,B-3064,GLYCODEOXYCHOLIC ACID,WVULKSPCQVQLCU-BUXLTGKBSA-N,C[C@H](CCC(=O)NCC(=O)O)[C@H]1CC[C@@H]2[C@@]1([C@H](C[C@H]3[C@H]2CC[C@H]4[C@@]3(CC[C@H](C4)O)C)O)C,000360-65-6,-5.221501175,CC(CCC(=O)NCC(=O)O)C1CCC2C3CCC4CC(O)CCC4(C)C3CC(O)C12C
634,B-3068,2.2'-Diamino-4.4'-disulfanediyl-di-butyric acid,ZTVZLYBCZNMWCF-ZBHICJROSA-N,C(CSSCCC(C(=O)O)N)[C@@H](C(=O)O)N,000626-72-2,-3.127671604,NC(CCSSCCC(N)C(=O)O)C(=O)O
635,B-3075,Capecitabine,GAGWJHPBXLXJQN-UORFTKCHSA-N,CCCCCOC(=O)NC1=NC(=O)N(C=C1F)[C@H]2[C@@H]([C@@H]([C@H](O2)C)O)O,154361-50-9,-4.140556387,CCCCCOC(=O)Nc1nc(=O)n(C2OC(C)C(O)C2O)cc1F
636,B-3077,Glycine. N-(carboxymethyl)-,NBZBKCUXIYYUSX-UHFFFAOYSA-N,C(C(=O)O)NCC(=O)O,000142-73-4,-0.749429709,O=C(O)CNCC(=O)O
637,B-3084,SALICIN,NGFMICBWJRZIBI-UJPOAAIJSA-N,OCC1=CC=CC=C1OCC1O[C@H](O)C(O)C(O)[C@@H]1O,000138-52-3,-0.854731017,OCc1ccccc1OCC1OC(O)C(O)C(O)C1O
638,B-3087,Metolazone,AQCHWTWZEMGIFD-JTQLQIEISA-N,C[C@H]1NC2CC(Cl)C(CC2C(=O)N1C1CCCCC1C)S(=O)(=O)N,017560-51-9,-3.782973876,CC1CCCCC1N1C(=O)C2CC(S(N)(=O)=O)C(Cl)CC2NC1C
639,B-3093,Benzenesulfonamide. 3-fluoro-4-[(4-hydroxybutyl),JOLVGDBQVXAKML-UHFFFAOYSA-N,C1=CC(=C(C=C1S(=O)(=O)N)F)S(=O)(=O)CCCCO,108966-78-5,-2.300124272,NS(=O)(=O)c1ccc(S(=O)(=O)CCCCO)c(F)c1
640,B-3095,D-GLUCONIC ACID,RGHNJXZEOKUKBD-SQOUGZDYSA-N,C([C@H]([C@H]([C@@H]([C@H](C(=O)O)O)O)O)O)O,000526-95-4,0.20707663,O=C(O)C(O)C(O)C(O)C(O)CO
641,B-3097,4.4'-Dicyano-4.4'azo-di-valeric acid,VFXXTYGQYWRHJP-UHFFFAOYSA-N,CC(CCC(=O)O)(C#N)N=NC(C)(CCC(=O)O)C#N,002638-94-0,-2.00827491,CC(C#N)(CCC(=O)O)N=NC(C)(C#N)CCC(=O)O
642,B-3099,DEHYDROCHOLIC ACID,OHXPGWPVLFPUSM-KLRNGDHRSA-N,C[C@H](CCC(=O)O)[C@H]1CC[C@@H]2[C@@]1(C(=O)C[C@H]3[C@H]2C(=O)C[C@H]4[C@@]3(CCC(=O)C4)C)C,000081-23-2,-3.349536537,CC(CCC(=O)O)C1CCC2C3C(=O)CC4CC(=O)CCC4(C)C3CC(=O)C12C
643,B-3100,3-fluoro-4-(2-hydroxyethylsulfonyl)benzenesulfonamide,IAWYFQRAIGYURV-UHFFFAOYSA-N,C1=CC(=C(C=C1S(=O)(=O)N)F)S(=O)(=O)CCO,108966-76-3,-1.933717305,NS(=O)(=O)c1ccc(S(=O)(=O)CCO)c(F)c1
644,B-3102,1H-Imidazole-4.5-dicarboxylic acid. 2-ethyl-,UABYSXCDWOEBRI-UHFFFAOYSA-N,CCC1=NC(=C(N1)C(=O)O)C(=O)O,058954-22-6,-2.833807959,CCc1nc(C(=O)O)c(C(=O)O)[nH]1
645,B-3104,2-NAPHTHYLAMINE-5.7-DISULFONIC ACID,KZCSUEYBKAPKNH-UHFFFAOYSA-N,C1=CC2=C(C=C(C=C2C=C1N)S(=O)(=O)O)S(=O)(=O)O,000118-33-2,-0.122051247,Nc1ccc2c(S(=O)(=O)O)cc(S(=O)(=O)O)cc2c1
646,B-3105,BENZENESULFONAMIDE. 4-[(4-HYDROXYBUTYL)SULFONYL],HLBQGOCNVGPIOX-UHFFFAOYSA-N,C1=CC(=CC=C1S(=O)(=O)CCCCO)S(=O)(=O)N,135832-42-7,-2.145166798,NS(=O)(=O)c1ccc(S(=O)(=O)CCCCO)cc1
647,B-3108,BENZENESULFONAMIDE. 4-[(2-HYDROXYETHYL)THIO]-3-N,UXGFMDKHLGDQJS-UHFFFAOYSA-N,C1=CC(=C(C=C1S(=O)(=O)N)[N+](=O)[O-])SCCO,108966-58-1,-2.745543202,NS(=O)(=O)c1ccc(SCCO)c([N+](=O)[O-])c1
648,B-3114,6-Pteridinecarboxylic acid. 1.2.3.4-tetrahydro-7,HXXQJEUEICLLLJ-UHFFFAOYSA-N,N1(C(=O)N(C2=C(C1(=O))N=C(C(=O)N2)C(=O)O)C)C,098879-90-4,-2.322546616,Cn1c(=O)c2nc(C(=O)O)c(=O)[nH]c2n(C)c1=O
649,B-3115,BENZENESULFONAMIDE. 4-[(3-HYDROXYPROPYL)SULFONYL,OUYRCRDEKNDXJI-UHFFFAOYSA-N,C1=CC(=CC=C1S(=O)(=O)CCCO)S(=O)(=O)N,108966-55-8,-1.588785085,NS(=O)(=O)c1ccc(S(=O)(=O)CCCO)cc1
650,B-3116,Sulfanilylurea,WVAKABMNNSMCDK-UHFFFAOYSA-N,C1=CC(=CC=C1N)S(=O)(=O)NC(=O)N,000547-44-4,-2.25372156,NC(=O)NS(=O)(=O)c1ccc(N)cc1
651,B-3119,BENZENESULFONAMIDE. 3-AMINO-4-[(2-HYDROXYETHYL)S,KHXANPYDVIZTJK-UHFFFAOYSA-N,NC1=CC(=CC=C1S(=O)(=O)CCO)S(N)(=O)=O,135832-45-0,-1.327080153,Nc1cc(S(N)(=O)=O)ccc1S(=O)(=O)CCO
652,B-3120,2-THIOPHENESULFONAMIDE. 5-[(4-HYDROXYBUTYL)SULFO,WJGJBTRPKNBZBW-UHFFFAOYSA-N,C1=C(SC(=C1)S(=O)(=O)N)S(=O)(=O)CCCCO,135832-39-2,-1.480587589,NS(=O)(=O)c1ccc(S(=O)(=O)CCCCO)s1
653,B-3128,4-Thiazolidinone. 5-[(3.4-dihydroxyphenyl)methyl,WVCFNVNKWVWZFT-XBXARRHUSA-N,C1=CC(=C(C=C1/C=C/2\C(=O)NC(=S)S2)O)O,097852-89-6,-3.342920204,O=C1NC(=S)SC1=Cc1ccc(O)c(O)c1
654,B-3131,[1.1'-Biphenyl]-2.2'-disulfonic acid. 4.4'-diami,MBJAPGAZEWPEFB-UHFFFAOYSA-N,C1=CC(=C(C=C1N)S(=O)(=O)O)C2=C(C=C(C=C2)N)S(=O)(=O)O,000117-61-3,-2.623728797,Nc1ccc(-c2ccc(N)cc2S(=O)(=O)O)c(S(=O)(=O)O)c1
655,B-3133,BENZENESULFONAMIDE. 4-[3-HYDROXY-3-METHYLBUTYL)S,CGAONTKAHYNZSM-UHFFFAOYSA-N,CC(C)(CCS(=O)(=O)C1=CC=C(C=C1)S(=O)(=O)N)O,108966-56-9,-1.943607562,CC(C)(O)CCS(=O)(=O)c1ccc(S(N)(=O)=O)cc1
656,B-3134,Amgard V6; BCMP-BCEP,ZGHUDSLVQAGWEY-UHFFFAOYSA-N,C(CCl)OP(=O)(OCCCl)OCC(COP(=O)(OCCCl)OCCCl)(CCl)CCl,038051-10-4,-3.40018057,O=P(OCCCl)(OCCCl)OCC(CCl)(CCl)COP(=O)(OCCCl)OCCCl
657,B-3138,Sulfanilic acid. N-carbamimidoylcarbamimidoyl-,MURZSIQUBHOHPQ-UHFFFAOYSA-N,C1=CC(=CC=C1N=C(N)N=C(N)N)S(=O)(=O)O,006405-80-7,-2.012449138,NC(N)=NC(N)=Nc1ccc(S(=O)(=O)O)cc1
658,B-3139,TRICHLORMETHIAZIDE,LMJSLTNSBFUCMU-QMMMGPOBSA-N,ClC([C@H]1NC2CC(Cl)C(CC2S(=O)(=O)N1)S(=O)(=O)N)Cl,000133-67-5,-2.677435847,NS(=O)(=O)C1CC2C(CC1Cl)NC(C(Cl)Cl)NS2(=O)=O