,C_ID,Name,InChIKey,SMILES,CAS,LogS,smiles_canon
3021,B-7793,(6R.7R)-3-(acetyloxymethyl)-7-amino-8-oxo-5-thia-1-azabicyclo[4.2.0]oct-2-ene-2-carboxylic acid,HSHGZXNAXBPPDL-HZGVNTEJSA-N,CC(=O)OCC1=C(N2[C@@H]([C@@H](C2=O)N)SC1)C(=O)O,000957-68-6,-2.648966875,CC(=O)OCC1=C(C(=O)O)N2C(=O)C(N)C2SC1
3022,B-7794,2-[1-[(2-aminophenyl)methyl]-5-(3.5-dichlorophenyl)sulfanyl-4-propan-2-ylimidazol-2-yl]ethyl carbamate,SHEAESWCGNXJKS-UHFFFAOYSA-N,CC(C)C1=C(N(C(=N1)CCOC(=O)N)CC2=CC=CC=C2N)SC3=CC(=CC(=C3)Cl)Cl,017976-32-8,-5.203597792,CC(C)c1nc(CCOC(N)=O)n(Cc2ccccc2N)c1Sc1cc(Cl)cc(Cl)c1
3023,B-7795,4.6-di(phenyl)-5H-1.3.5-triazin-2-one,KODLDJGSBFMSDG-UHFFFAOYSA-N,C1=CC=C(C=C1)C2=NC(=O)N=C(N2)C3=CC=CC=C3,001917-44-8,-5.493582466,O=c1nc(-c2ccccc2)[nH]c(-c2ccccc2)n1
3024,B-7796,5-amino-2-[(4-aminophenyl)amino]benzenesulfonic acid,VKURVCNKVWKGLX-UHFFFAOYSA-N,C1=CC(=CC=C1N)NC2=C(C=C(C=C2)N)S(=O)(=O)O,000119-70-0,-2.792878636,Nc1ccc(Nc2ccc(N)cc2S(=O)(=O)O)cc1
3025,B-7797,2-[2-(4-fluorophenyl)-2-oxo-1-phenylethyl]-4-methyl-3-oxo-N-phenylpentanamide,SNPBHOICIJUUFB-UHFFFAOYSA-N,CC(C)C(=O)C(C(C1=CC=CC=C1)C(=O)C2=CC=C(C=C2)F)C(=O)NC3=CC=CC=C3,125971-96-2,-6.140627588,CC(C)C(=O)C(C(=O)Nc1ccccc1)C(C(=O)c1ccc(F)cc1)c1ccccc1
3026,B-7799,dimethyl 4-(2-chlorophenyl)-2-[2-(1.3-dioxoisoindol-2-yl)ethoxymethyl]-6-methyl-1.4-dihydropyridine-3.5-dicarboxylate,SHDHHSNRYVKCRF-UHFFFAOYSA-N,CC1=C(C(C(=C(N1)COCCN2C(=O)C3=CC=CC=C3C2=O)C(=O)OC)C4=CC=CC=C4Cl)C(=O)OC,088150-62-3,-4.489674562,COC(=O)C1=C(C)NC(COCCN2C(=O)c3ccccc3C2=O)=C(C(=O)OC)C1c1ccccc1Cl
3027,B-7800,4-amino-2.5-dimethoxy-N-phenylbenzenesulfonamide,NFYQAEPHDGXJSY-UHFFFAOYSA-N,COC1=CC(=C(C=C1N)OC)S(=O)(=O)NC2=CC=CC=C2,052298-44-9,-4.05768216,COc1cc(S(=O)(=O)Nc2ccccc2)c(OC)cc1N
3028,B-7801,1.4-bis[(4-tert-butylphenyl)amino]-5.8-dihydroxyanthracene-9.10-dione,KWBCXNHXXWZCMM-UHFFFAOYSA-N,CC(C)(C)C1=CC=C(C=C1)NC2=C3C(=C(C=C2)NC4=CC=C(C=C4)C(C)(C)C)C(=O)C5=C(C=CC(=C5C3=O)O)O,004851-50-7,-8.652525534,CC(C)(C)c1ccc(Nc2ccc(Nc3ccc(C(C)(C)C)cc3)c3c2C(=O)c2c(O)ccc(O)c2C3=O)cc1
3029,B-7802,4-[(4-carbamoylphenyl)diazenyl]-N-(2-ethoxyphenyl)-3-hydroxynaphthalene-2-carboxamide,BGVYDWVAGZBEMJ-UHFFFAOYSA-N,CCOC1=CC=CC=C1NC(=O)C2=CC3=CC=CC=C3C(=C2O)N=NC4=CC=C(C=C4)C(=O)N,002786-76-7,-7.581971828,CCOc1ccccc1NC(=O)c1cc2ccccc2c(N=Nc2ccc(C(N)=O)cc2)c1O
3030,B-7803,3-(4-aminobenzoyl)oxypropyl 4-aminobenzoate,YPACMOORZSDQDQ-UHFFFAOYSA-N,C1=CC(=CC=C1C(=O)OCCCOC(=O)C2=CC=C(C=C2)N)N,057609-64-0,-4.895339934,Nc1ccc(C(=O)OCCCOC(=O)c2ccc(N)cc2)cc1
3031,B-7804,3-oxo-N-(2-oxo-1.3-dihydrobenzimidazol-5-yl)butanamide,VEMDQCGHZNXORX-UHFFFAOYSA-N,CC(=O)CC(=O)NC1=CC2=C(C=C1)NC(=O)N2,026576-46-5,-2.522679296,CC(=O)CC(=O)Nc1ccc2[nH]c(=O)[nH]c2c1
3032,B-7805,3.9-dimethyl-2.4.8.10-tetraoxa-3$l^{5}.9$l^{5}-diphosphaspiro[5.5]undecane 3.9-dioxide,ACRCGKKNPOZIPG-UHFFFAOYSA-N,CP1(=O)OCC2(CO1)COP(=O)(OC2)C,003001-98-7,0.234001527,CP1(=O)OCC2(CO1)COP(C)(=O)OC2
3033,B-7806,3-[2.3-bis(3-prop-2-enoyloxypropoxy)propoxy]propyl prop-2-enoate,DMQYPVOQAARSNF-UHFFFAOYSA-N,C=CC(=O)OCCCOCC(COCCCOC(=O)C=C)OCCCOC(=O)C=C,052408-84-1,-2.552747688,C=CC(=O)OCCCOCC(COCCCOC(=O)C=C)OCCCOC(=O)C=C
3034,B-7807,3-Amino-2-hydroxy-5-nitrobenzenesulfonic acid,DQIVFTJHYKDOMZ-UHFFFAOYSA-N,C1=C(C=C(C(=C1N)O)S(=O)(=O)O)[N+](=O)[O-],000096-67-3,-1.766194812,Nc1cc([N+](=O)[O-])cc(S(=O)(=O)O)c1O
3035,B-7808,4-oxo-1-(pyrimidin-5-ylmethyl)-3-[3-(trifluoromethyl)phenyl]pyrido[1.2-a]pyrimidin-1-ium-2-olate,LHZOTJOOBRODLL-UHFFFAOYSA-N,C1=CC2=[N+](C(=C(C(=O)N2C=C1)C3=CC(=CC=C3)C(F)(F)F)[O-])CC4=CN=CN=C4,1263133-33-0,-3.238529899,O=c1c(-c2cccc(C(F)(F)F)c2)c([O-])[n+](Cc2cncnc2)c2ccccn12
3036,B-7809,N-[4-(2-hydroxyethylsulfonyl)phenyl]acetamide,XIICKRYAUAVEQS-UHFFFAOYSA-N,CC(=O)NC1=CC=C(C=C1)S(=O)(=O)CCO,027375-52-6,-2.085071056,CC(=O)Nc1ccc(S(=O)(=O)CCO)cc1
3037,B-7810,4-[(4-aminobenzoyl)amino]benzamide,FSPYMSUDIVFOHY-UHFFFAOYSA-N,C1=CC(=CC=C1C(=O)NC2=CC=C(C=C2)C(=O)N)N,074441-06-8,-4.915647612,NC(=O)c1ccc(NC(=O)c2ccc(N)cc2)cc1
3038,B-7811,11.16.17-trihydroxy-17-(2-hydroxyacetyl)-10.13-dimethyl-7.8.9.11.12.14.15.16-octahydro-6H-cyclopenta[a]phenanthren-3-one,SEKYBDYVXDAYPY-UHFFFAOYSA-N,CC12CC(C3C(C1CC(C2(C(=O)CO)O)O)CCC4=CC(=O)C=CC34C)O,013951-70-7,-2.664548078,CC12C=CC(=O)C=C1CCC1C2C(O)CC2(C)C1CC(O)C2(O)C(=O)CO
3039,B-7812,4-(1-amino-4-hydroxy-9.10-dioxoanthracen-2-yl)oxy-N-(3-ethoxypropyl)benzenesulfonamide,ALXCWDABTQQKAH-UHFFFAOYSA-N,CCOCCCNS(=O)(=O)C1=CC=C(C=C1)OC2=C(C3=C(C(=C2)O)C(=O)C4=CC=CC=C4C3=O)N,072363-26-9,-4.787463798,CCOCCCNS(=O)(=O)c1ccc(Oc2cc(O)c3c(c2N)C(=O)c2ccccc2C3=O)cc1
3040,B-7813,4-(4-cyano-2-methoxyphenyl)-5-ethoxy-2.8-dimethyl-1.4-dihydro-1.6-naphthyridine-3-carboxamide,BTBHLEZXCOBLCY-UHFFFAOYSA-N,CCOC1=NC=C(C2=C1C(C(=C(N2)C)C(=O)N)C3=C(C=C(C=C3)C#N)OC)C,1050477-27-4,-4.315500038,CCOc1ncc(C)c2c1C(c1ccc(C#N)cc1OC)C(C(N)=O)=C(C)N2
3041,B-7814,2-(4-methylphenyl)sulfonyl-3-(5-oxo-2-sulfanyl-4H-imidazol-3-yl)prop-2-enenitrile,GPLOHVHPULDLOP-UHFFFAOYSA-N,CC1=CC=C(C=C1)S(=O)(=O)C(=CN2CC(=O)N=C2S)C#N,004927-36-0,-3.529322267,Cc1ccc(S(=O)(=O)C(C#N)=CN2CC(=O)N=C2S)cc1
3042,B-7815,N-[2-chloro-5-(trifluoromethyl)phenyl]-2-(3-nitro-1.2.4-triazol-1-yl)acetamide,MXAJYGSMFXDTIF-UHFFFAOYSA-N,C1=CC(=C(C=C1C(F)(F)F)NC(=O)CN2C=NC(=N2)[N+](=O)[O-])Cl,004306-88-1,-5.968107015,O=C(Cn1cnc([N+](=O)[O-])n1)Nc1cc(C(F)(F)F)ccc1Cl
3043,B-7816,3-oxo-N-[4-(3-oxobutanoylamino)phenyl]butanamide,OWGNKUKYZPVEFS-UHFFFAOYSA-N,CC(=O)CC(=O)NC1=CC=C(C=C1)NC(=O)CC(=O)C,024731-73-5,-2.924171469,CC(=O)CC(=O)Nc1ccc(NC(=O)CC(C)=O)cc1
3044,B-7817,15.17-dioxo-16-azahexacyclo[12.6.2.12.6.011.21.018.22.010.23]tricosa-1(21).2(23).3.5.7.9.11.13.18(22).19-decaene-5.7-dicarboxylic acid,UDSOBQUPZDBBNO-UHFFFAOYSA-N,C1=CC2=C3C(=CC=C4C3=C1C5=C6C4=CC=C(C6=C(C=C5)C(=O)O)C(=O)O)C(=O)NC2=O,1451734-05-6,-2.498155686,O=C(O)c1ccc2c3ccc4c5c(ccc(c6ccc(C(=O)O)c1c26)c53)C(=O)NC4=O
3045,B-7818,N2-(4.6-diamino-1.3.5-triazin-2-yl)-1.3.5-triazine-2.4.6-triamine,YZEZMSPGIPTEBA-UHFFFAOYSA-N,C1(=NC(=NC(=N1)NC2=NC(=NC(=N2)N)N)N)N,003576-88-3,-3.982291175,Nc1nc(N)nc(Nc2nc(N)nc(N)n2)n1
3046,B-7819,tris[2-(2-methoxyethoxy)ethoxy]-[3-(oxiran-2-ylmethoxy)propyl]silane,BAPRPWHVXHPSHD-UHFFFAOYSA-N,COCCOCCO[Si](CCCOCC1CO1)(OCCOCCOC)OCCOCCOC,088127-84-8,-0.458991912,COCCOCCO[Si](CCCOCC1CO1)(OCCOCCOC)OCCOCCOC
3047,B-7820,2-Hydroxy-5-sulfobenzoic acid,YCPXWRQRBFJBPZ-UHFFFAOYSA-N,C1=CC(=C(C=C1S(=O)(=O)O)C(=O)O)O,000097-05-2,0.655500623,O=C(O)c1cc(S(=O)(=O)O)ccc1O
3048,B-7821,[(2R.3R.4R.5S.6S)-3.5-diacetyloxy-2-(acetyloxymethyl)-6-[4-chloro-3-[(4-ethoxyphenyl)methyl]phenyl]oxan-4-yl] acetate,DKOQYKRDCDCNOR-ZCCUTQAASA-N,CCOC1=CC=C(C=C1)CC2=C(C=CC(=C2)[C@H]3[C@@H]([C@H]([C@@H]([C@H](O3)COC(=O)C)OC(=O)C)OC(=O)C)OC(=O)C)Cl,461432-25-7,-7.711977886,CCOc1ccc(Cc2cc(C3OC(COC(C)=O)C(OC(C)=O)C(OC(C)=O)C3OC(C)=O)ccc2Cl)cc1
3049,B-7822,3-[(2-acetamidoacetyl)amino]propanoic acid,PEEDOBFPBBICBX-UHFFFAOYSA-N,CC(=O)NCC(=O)NCCC(=O)O,1016788-34-3,-0.036533823,CC(=O)NCC(=O)NCCC(=O)O
3050,B-7823,N-(28-benzamido-6.13.19.26-tetraoxo-16-azaheptacyclo[15.12.0.02.15.05.14.07.12.018.27.020.25]nonacosa-1(29).2(15).3.5(14).7(12).8.10.17.20.22.24.27-dodecaen-8-yl)benzamide,AAKMSGQPNUGLAZ-UHFFFAOYSA-N,C1=CC=C(C=C1)C(=O)NC2=CC=CC3=C2C(=O)C4=C(C3=O)C5=C(C=C4)C6=CC(=C7C(=C6N5)C(=O)C8=CC=CC=C8C7=O)NC(=O)C9=CC=CC=C9,000131-92-0,-5.647161332,O=C(Nc1cccc2c(=O)c3c(ccc4c5cc(NC(=O)c6ccccc6)c6c(=O)c7ccccc7c(=O)c6c5[nH]c43)c(=O)c12)c1ccccc1
3051,B-7824,methyl 4-[(2.5-dichlorophenyl)carbamoyl]-2-[(2Z)-2-[3-[(2-methoxyphenyl)carbamoyl]-2-oxonaphthalen-1-ylidene]hydrazinyl]benzoate,OUHCNDIVBVVGQH-RGINJTCGSA-N,COC1=CC=CC=C1NC(=O)C2=CC3=CC=CC=C3/C(=N/NC4=C(C=CC(=C4)C(=O)NC5=C(C=CC(=C5)Cl)Cl)C(=O)OC)/C2=O,061847-48-1,-8.175067812,COC(=O)c1ccc(C(=O)Nc2cc(Cl)ccc2Cl)cc1NN=C1C(=O)C(C(=O)Nc2ccccc2OC)=Cc2ccccc21
3052,B-7825,(2S)-N.N'-dibutyl-2-(2-ethylhexanoylamino)pentanediamide,OVUBDKNXJHOLMI-ZVAWYAOSSA-N,CCCCC(CC)C(=O)N[C@@H](CCC(=O)NCCCC)C(=O)NCCCC,486455-65-6,-4.542455571,CCCCNC(=O)CCC(NC(=O)C(CC)CCCC)C(=O)NCCCC
3053,B-7826,[(2S.3R.5S)-3-(4-methylbenzoyl)oxy-5-(5-methyl-2.4-dioxopyrimidin-1-yl)oxolan-2-yl]methyl 4-methylbenzoate,PUSZQUJVSQNJEI-FSSWDIPSSA-N,CC1=CC=C(C=C1)C(=O)OC[C@H]2[C@@H](C[C@H](O2)N3C=C(C(=O)NC3=O)C)OC(=O)C4=CC=C(C=C4)C,003056-13-1,-6.017124655,Cc1ccc(C(=O)OCC2OC(n3cc(C)c(=O)[nH]c3=O)CC2OC(=O)c2ccc(C)cc2)cc1
3054,B-7827,2-(2-methoxyphenyl)diazenyl-3-oxo-N-(2-oxo-1.3-dihydrobenzimidazol-5-yl)butanamide,BWCSCOGVOJAQRL-UHFFFAOYSA-N,CC(=O)C(C(=O)NC1=CC2=C(C=C1)NC(=O)N2)N=NC3=CC=CC=C3OC,082199-12-0,-7.630597435,COc1ccccc1N=NC(C(C)=O)C(=O)Nc1ccc2[nH]c(=O)[nH]c2c1
3055,B-7828,3-Acetamido-5-amino-4-hydroxybenzenesulfonic acid,SFUJTLIHMWZDTL-UHFFFAOYSA-N,CC(=O)NC1=CC(=CC(=C1O)N)S(=O)(=O)O,040306-75-0,-2.090324021,CC(=O)Nc1cc(S(=O)(=O)O)cc(N)c1O
3056,B-7829,N-di(propan-2-yloxy)phosphoryl-2-(methoxy-phenylphosphoryl)sulfanylethanamine,OHALSGVLUGOHKA-UHFFFAOYSA-N,CC(C)OP(=O)(NCCSP(=O)(C1=CC=CC=C1)OC)OC(C)C,022504-50-3,-2.049250427,COP(=O)(SCCNP(=O)(OC(C)C)OC(C)C)c1ccccc1
3057,B-7831,2-[(2-methoxy-5-nitrophenyl)diazenyl]-N-(2-methoxyphenyl)-3-oxobutanamide,OQWQAIRBZGBTBN-UHFFFAOYSA-N,CC(=O)C(C(=O)NC1=CC=CC=C1OC)N=NC2=C(C=CC(=C2)[N+](=O)[O-])OC,080675-49-6,-7.308242378,COc1ccc([N+](=O)[O-])cc1N=NC(C(C)=O)C(=O)Nc1ccccc1OC
3058,B-7832,(2S)-4-methylsulfanyl-2-[[2-(phenylmethoxycarbonylamino)acetyl]amino]butanoic acid,JXQGLWUIDPXMHD-LBPRGKRZSA-N,CSCC[C@@H](C(=O)O)NC(=O)CNC(=O)OCC1=CC=CC=C1,017351-75-6,-4.18955845,CSCCC(NC(=O)CNC(=O)OCc1ccccc1)C(=O)O
3059,B-7833,2-[(4-aminophenyl)amino]-5-nitrobenzenesulfonic acid,GSITZZUEHIPPMH-UHFFFAOYSA-N,C1=CC(=CC=C1N)NC2=C(C=C(C=C2)[N+](=O)[O-])S(=O)(=O)O,000091-29-2,-1.598279701,Nc1ccc(Nc2ccc([N+](=O)[O-])cc2S(=O)(=O)O)cc1
3060,B-7834,2-(4-chloro-2-nitrophenyl)diazenyl-3-oxo-N-(2-oxo-1.3-dihydrobenzimidazol-5-yl)butanamide,DLQMNSDNQWLFSS-UHFFFAOYSA-N,CC(=O)C(C(=O)NC1=CC2=C(C=C1)NC(=O)N2)N=NC3=C(C=C(C=C3)Cl)[N+](=O)[O-],012236-62-3,-7.47377873,CC(=O)C(N=Nc1ccc(Cl)cc1[N+](=O)[O-])C(=O)Nc1ccc2[nH]c(=O)[nH]c2c1
3061,B-7835,7.18-bis(3.5-dimethylphenyl)-7.18-diazaheptacyclo[14.6.2.22.5.03.12.04.9.013.23.020.24]hexacosa-1(23).2.4.9.11.13.15.20(24).21.25-decaene-6.8.17.19-tetrone,FDXVHZCFTCIKDD-UHFFFAOYSA-N,CC1=CC(=CC(=C1)N2C(=O)C3=C4C(=CC=C5C4=C(C=C3)C6=C7C5=CC=C8C7=C(C=C6)C(=O)N(C8=O)C9=CC(=CC(=C9)C)C)C2=O)C,004948-15-6,-8.631049594,Cc1cc(C)cc(N2C(=O)c3ccc4c5ccc6c7c(ccc(c8ccc(c3c48)C2=O)c75)C(=O)N(c2cc(C)cc(C)c2)C6=O)c1
3062,B-7836,2-cyanoethyl 4-(4-cyano-2-methoxyphenyl)-5-ethoxy-2.8-dimethyl-1.4-dihydro-1.6-naphthyridine-3-carboxylate,AZFZQYUDLXNVMW-UHFFFAOYSA-N,CCOC1=NC=C(C2=C1C(C(=C(N2)C)C(=O)OCCC#N)C3=C(C=C(C=C3)C#N)OC)C,1050477-44-5,-6.173588114,CCOc1ncc(C)c2c1C(c1ccc(C#N)cc1OC)C(C(=O)OCCC#N)=C(C)N2
3063,B-7837,5-methyl-N-[2-(4-sulfamoylphenyl)ethyl]pyrazine-2-carboxamide,IMEZLHZLIANIAS-UHFFFAOYSA-N,CC1=CN=C(C=N1)C(=O)NCCC2=CC=C(C=C2)S(=O)(=O)N,033288-71-0,-4.236132661,Cc1cnc(C(=O)NCCc2ccc(S(N)(=O)=O)cc2)cn1
3064,B-7838,tert-butyl 4-[6-[[7-cyclopentyl-6-(dimethylcarbamoyl)pyrrolo[2.3-d]pyrimidin-2-yl]amino]pyridin-3-yl]piperazine-1-carboxylate,ZCVCEBXWRPIXKX-UHFFFAOYSA-N,CC(C)(C)OC(=O)N1CCN(CC1)C2=CN=C(C=C2)NC3=NC=C4C=C(N(C4=N3)C5CCCC5)C(=O)N(C)C,1374639-78-7,-6.337142587,CN(C)C(=O)c1cc2cnc(Nc3ccc(N4CCN(C(=O)OC(C)(C)C)CC4)cn3)nc2n1C1CCCC1
3065,B-7839,3-dimethoxyphosphoryl-N-(hydroxymethyl)propanamide,MCONGYNHPPCHSD-UHFFFAOYSA-N,COP(=O)(CCC(=O)NCO)OC,020120-33-6,1.578490468,COP(=O)(CCC(=O)NCO)OC
3066,B-7840,4-[(1-anilino-1.3-dioxobutan-2-yl)diazenyl]benzoic acid,BWKJXBKXGCGSPT-UHFFFAOYSA-N,CC(=O)C(C(=O)NC1=CC=CC=C1)N=NC2=CC=C(C=C2)C(=O)O,124772-04-9,-4.132103794,CC(=O)C(N=Nc1ccc(C(=O)O)cc1)C(=O)Nc1ccccc1
3067,B-7841,naphthalene-1.5-disulfonamide,UGTLNJSCSSEXDI-UHFFFAOYSA-N,C1=CC2=C(C=CC=C2S(=O)(=O)N)C(=C1)S(=O)(=O)N,051773-49-0,-4.082103339,NS(=O)(=O)c1cccc2c(S(N)(=O)=O)cccc12
3068,B-7842,N-(4-amino-1.3-dimethyl-2.6-dioxopyrimidin-5-yl)formamide,ZNDGAXCBZGSJGU-UHFFFAOYSA-N,CN1C(=C(C(=O)N(C1=O)C)NC=O)N,007597-60-6,-1.183118663,Cn1c(N)c(NC=O)c(=O)n(C)c1=O
3069,B-7843,2-(Bis(2-hydroxyethyl)amino)ethanesulfonic acid,AJTVSSFTXWNIRG-UHFFFAOYSA-N,C(CO)N(CCO)CCS(=O)(=O)O,010191-18-1,0.590192718,O=S(=O)(O)CCN(CCO)CCO
3070,B-7844,2-[[4-[2-cyanoethyl(2-phenylethyl)amino]phenyl]diazenyl]-5-nitrobenzonitrile,CWNHPGPSJLVQCK-UHFFFAOYSA-N,C1=CC=C(C=C1)CCN(CCC#N)C2=CC=C(C=C2)N=NC3=C(C=C(C=C3)[N+](=O)[O-])C#N,024610-00-2,-7.3056584,N#CCCN(CCc1ccccc1)c1ccc(N=Nc2ccc([N+](=O)[O-])cc2C#N)cc1
3071,B-7845,3-dimethylamino-N-(3.3.4.4.5.5.6.6.7.7.8.8.8-tridecafluorooctylsulfonyl)propan-1-amine oxide,WQNQTJSLPDZSDK-UHFFFAOYSA-N,CN(C)CCC[NH+]([O-])S(=O)(=O)CCC(C(C(C(C(C(F)(F)F)(F)F)(F)F)(F)F)(F)F)(F)F,080475-32-7,-0.291539946,CN(C)CCC[NH+]([O-])S(=O)(=O)CCC(F)(F)C(F)(F)C(F)(F)C(F)(F)C(F)(F)C(F)(F)F
3072,B-7846,3-(4-fluorophenyl)-1-(4-sulfamoylphenyl)thiourea,VUDOFEJVAFMLEC-UHFFFAOYSA-N,C1=CC(=CC=C1NC(=S)NC2=CC=C(C=C2)S(=O)(=O)N)F,006156-18-9,-2.989940081,NS(=O)(=O)c1ccc(NC(=S)Nc2ccc(F)cc2)cc1
3073,B-7847,[2-butyl-5-chloro-3-[[4-[2-[2-[tri(phenyl)methyl]tetrazol-5-yl]phenyl]phenyl]methyl]imidazol-4-yl]methanol,QQPGGBNMTNDKEY-UHFFFAOYSA-N,CCCCC1=NC(=C(N1CC2=CC=C(C=C2)C3=CC=CC=C3C4=NN(N=N4)C(C5=CC=CC=C5)(C6=CC=CC=C6)C7=CC=CC=C7)CO)Cl,133909-99-6,-6.461247842,CCCCc1nc(Cl)c(CO)n1Cc1ccc(-c2ccccc2-c2nnn(C(c3ccccc3)(c3ccccc3)c3ccccc3)n2)cc1
3074,B-7848,hexanedihydrazide,IBVAQQYNSHJXBV-UHFFFAOYSA-N,C(CCC(=O)NN)CC(=O)NN,001071-93-8,-0.232453464,NNC(=O)CCCCC(=O)NN
3075,B-7849,2-amino-3-[4-(4-hydroxyphenoxy)-3.5-diiodophenyl]propanoic acid,ZHSOTLOTTDYIIK-UHFFFAOYSA-N,C1=CC(=CC=C1O)OC2=C(C=C(C=C2I)CC(C(=O)O)N)I,001041-01-6,-4.415951253,NC(Cc1cc(I)c(Oc2ccc(O)cc2)c(I)c1)C(=O)O
3076,B-7850,[(1S.2S.5S.6R.7R.9S.10S.18R)-5-(cyclopropanecarbonyloxy)-9.18-dihydroxy-2.6.10-trimethyl-16-oxo-14-pyridin-3-yl-11.15-dioxatetracyclo[8.8.0.02.7.012.17]octadeca-12(17).13-dien-6-yl]methyl cyclopropanecarboxylate,LRZWFURXIMFONG-HRSIRGMGSA-N,C[C@]12CC[C@@H]([C@@]([C@@H]1C[C@@H]([C@@]3([C@@H]2[C@H](C4=C(O3)C=C(OC4=O)C5=CN=CC=C5)O)C)O)(C)COC(=O)C6CC6)OC(=O)C7CC7,915972-17-7,-4.373873137,CC1(COC(=O)C2CC2)C(OC(=O)C2CC2)CCC2(C)C1CC(O)C1(C)Oc3cc(-c4cccnc4)oc(=O)c3C(O)C21
3077,B-7851,4-bis(4-aminophenoxy)phosphinothioyloxyaniline,MBUAAMOJATXYKR-UHFFFAOYSA-N,C1=CC(=CC=C1N)OP(=S)(OC2=CC=C(C=C2)N)OC3=CC=C(C=C3)N,052664-35-4,-5.309397383,Nc1ccc(OP(=S)(Oc2ccc(N)cc2)Oc2ccc(N)cc2)cc1
3078,B-7852,4-[2-chloro-4-[3-chloro-4-[(3-methyl-5-oxo-1-phenyl-4H-pyrazol-4-yl)diazenyl]phenyl]phenyl]diazenyl-5-methyl-2-phenyl-4H-pyrazol-3-one,HKYYDLYCGBDWSB-UHFFFAOYSA-N,CC1=NN(C(=O)C1N=NC2=C(C=C(C=C2)C3=CC(=C(C=C3)N=NC4C(=NN(C4=O)C5=CC=CC=C5)C)Cl)Cl)C6=CC=CC=C6,003520-72-7,-8.141623944,CC1=NN(c2ccccc2)C(=O)C1N=Nc1ccc(-c2ccc(N=NC3C(=O)N(c4ccccc4)N=C3C)c(Cl)c2)cc1Cl
3079,B-7853,2-Aminobenzene-1.4-disulfonic acid,LDCCBULMAFILCT-UHFFFAOYSA-N,C1=CC(=C(C=C1S(=O)(=O)O)N)S(=O)(=O)O,000098-44-2,-1.812475244,Nc1cc(S(=O)(=O)O)ccc1S(=O)(=O)O
3080,B-7854,7-[(3-chloro-6-methyl-5.5-dioxo-11H-benzo[c][2.1]benzothiazepin-11-yl)amino]heptanoic acid,JICJBGPOMZQUBB-UHFFFAOYSA-N,CN1C2=CC=CC=C2C(C3=C(S1(=O)=O)C=C(C=C3)Cl)NCCCCCCC(=O)O,072797-41-2,-4.02871092,CN1c2ccccc2C(NCCCCCCC(=O)O)c2ccc(Cl)cc2S1(=O)=O
3081,B-7855,2-[2-chloro-4-[3-chloro-4-[1.3-dioxo-1-(phenylamino)butan-2-yl]diazenylphenyl]phenyl]diazenyl-3-oxo-N-phenylbutanamide,GNCOVOVCHIHPHP-UHFFFAOYSA-N,CC(=O)C(C(=O)NC1=CC=CC=C1)N=NC2=C(C=C(C=C2)C3=CC(=C(C=C3)N=NC(C(=O)C)C(=O)NC4=CC=CC=C4)Cl)Cl,006358-85-6,-9.196936571,CC(=O)C(N=Nc1ccc(-c2ccc(N=NC(C(C)=O)C(=O)Nc3ccccc3)c(Cl)c2)cc1Cl)C(=O)Nc1ccccc1
3082,B-7856,3-[N-(2-cyanoethyl)-4-[(2.6-dichloro-4-nitrophenyl)diazenyl]anilino]propanenitrile,MUERWWKQVXXPML-UHFFFAOYSA-N,C1=CC(=CC=C1N=NC2=C(C=C(C=C2Cl)[N+](=O)[O-])Cl)N(CCC#N)CCC#N,067923-43-7,-7.115194321,N#CCCN(CCC#N)c1ccc(N=Nc2c(Cl)cc([N+](=O)[O-])cc2Cl)cc1
3083,B-7857,2.3-dihydroxypropoxy-[(Z)-octadec-9-enoyl]oxyborinic acid,KQOGYTBOIWWUEW-KTKRTIGZSA-N,B(O)(OCC(CO)O)OC(=O)CCCCCCC/C=C\CCCCCCCC,063310-16-7,-4.602452091,CCCCCCCCC=CCCCCCCCC(=O)OB(O)OCC(O)CO
3084,B-7858,benzene-1.3-dicarbohydrazide,UTTHLMXOSUFZCQ-UHFFFAOYSA-N,C1=CC(=CC(=C1)C(=O)NN)C(=O)NN,002760-98-7,-1.676509368,NNC(=O)c1cccc(C(=O)NN)c1
3085,B-7859,ethyl 1-(4-methoxyphenyl)-7-oxo-6-[4-(2-oxopiperidin-1-yl)phenyl]-4.5-dihydropyrazolo[5.4-c]pyridine-3-carboxylate,PULNLYVCJSOXKS-UHFFFAOYSA-N,CCOC(=O)C1=NN(C2=C1CCN(C2=O)C3=CC=C(C=C3)N4CCCCC4=O)C5=CC=C(C=C5)OC,503614-91-3,-4.628204066,CCOC(=O)c1nn(-c2ccc(OC)cc2)c2c1CCN(c1ccc(N3CCCCC3=O)cc1)C2=O
3086,B-7860,2-[2-[bis(cyanomethyl)amino]ethyl-(cyanomethyl)amino]acetonitrile,FDWRKVKXYZRYOD-UHFFFAOYSA-N,C(CN(CC#N)CC#N)N(CC#N)CC#N,005766-67-6,-2.859264844,N#CCN(CC#N)CCN(CC#N)CC#N
3087,B-7861,(E)-18-phosphonooxyoctadec-10-enoic acid,MEIOLAIVIVFAFI-HNQUOIGGSA-N,C(CCCCC(=O)O)CCC/C=C/CCCCCCCOP(=O)(O)O,068604-99-9,-4.197791186,O=C(O)CCCCCCCCC=CCCCCCCCOP(=O)(O)O
3088,B-7862,(4-hydroxyphenyl)phosphonic acid,YIDVLWDHYNWHMH-UHFFFAOYSA-N,C1=CC(=CC=C1O)P(=O)(O)O,033795-18-5,-8.240780561,O=P(O)(O)c1ccc(O)cc1
3089,B-7863,3-amino-5-(2.3-diacetyloxypropylcarbamoyl)-2.4.6-triiodobenzoic acid,ZNLVMZLCIIIYPV-UHFFFAOYSA-N,CC(=O)OCC(CNC(=O)C1=C(C(=C(C(=C1I)N)I)C(=O)O)I)OC(=O)C,122731-59-3,-1.386569453,CC(=O)OCC(CNC(=O)c1c(I)c(N)c(I)c(C(=O)O)c1I)OC(C)=O
3090,B-7864,N-(4-carbamoylphenyl)-4-methoxy-3-nitrobenzamide,JXHSJUAPWJKPLE-UHFFFAOYSA-N,COC1=C(C=C(C=C1)C(=O)NC2=CC=C(C=C2)C(=O)N)[N+](=O)[O-],093839-20-4,-4.653604994,COc1ccc(C(=O)Nc2ccc(C(N)=O)cc2)cc1[N+](=O)[O-]
3091,B-7865,2-[1.3-dioxo-1-[(2-oxo-1.3-dihydrobenzimidazol-5-yl)amino]butan-2-yl]diazenylbenzoic acid,YMFWVWDPPIWORA-UHFFFAOYSA-N,CC(=O)C(C(=O)NC1=CC2=C(C=C1)NC(=O)N2)N=NC3=CC=CC=C3C(=O)O,031837-42-0,-7.330900332,CC(=O)C(N=Nc1ccccc1C(=O)O)C(=O)Nc1ccc2[nH]c(=O)[nH]c2c1
3092,B-7866,N-[2-methyl-4-[3-methyl-4-(3-oxobutanoylamino)phenyl]phenyl]-3-oxobutanamide,CRRLDLPBQWRVGN-UHFFFAOYSA-N,CC1=C(C=CC(=C1)C2=CC(=C(C=C2)NC(=O)CC(=O)C)C)NC(=O)CC(=O)C,000091-96-3,-5.325016636,CC(=O)CC(=O)Nc1ccc(-c2ccc(NC(=O)CC(C)=O)c(C)c2)cc1C
3093,B-7867,4-amino-N-[(2R.3S)-3-amino-2-hydroxy-4-phenylbutyl]-N-(2-methylpropyl)benzenesulfonamide,NUMJNKDUHFCFJO-VQTJNVASSA-N,CC(C)CN(C[C@H]([C@H](CC1=CC=CC=C1)N)O)S(=O)(=O)C2=CC=C(C=C2)N,169280-56-2,-3.929061235,CC(C)CN(CC(O)C(N)Cc1ccccc1)S(=O)(=O)c1ccc(N)cc1
3094,B-7868,ethyl 4-[2-chloro-4-[3-chloro-4-[(3-ethoxycarbonyl-5-oxo-1-phenyl-4H-pyrazol-4-yl)diazenyl]phenyl]phenyl]diazenyl-5-oxo-1-phenyl-4H-pyrazole-3-carboxylate,PLYDMIIYRWUYBP-UHFFFAOYSA-N,CCOC(=O)C1=NN(C(=O)C1N=NC2=C(C=C(C=C2)C3=CC(=C(C=C3)N=NC4C(=NN(C4=O)C5=CC=CC=C5)C(=O)OCC)Cl)Cl)C6=CC=CC=C6,006358-87-8,-8.526558484,CCOC(=O)C1=NN(c2ccccc2)C(=O)C1N=Nc1ccc(-c2ccc(N=NC3C(=O)N(c4ccccc4)N=C3C(=O)OCC)c(Cl)c2)cc1Cl
3095,B-7869,2-amino-5-(2-hydroxyethyl)-6-methyl-1H-pyrimidin-4-one,OJXFZYFYTJJGFU-UHFFFAOYSA-N,CC1=C(C(=O)N=C(N1)N)CCO,006940-45-0,-2.029699121,Cc1[nH]c(N)nc(=O)c1CCO
3096,B-7870,2-[4-[(4-anilinophenyl)-(4-phenyliminocyclohexa-2.5-dien-1-ylidene)methyl]anilino]benzenesulfonic acid,XRICJEBVEBHBGH-UHFFFAOYSA-N,C1=CC=C(C=C1)NC2=CC=C(C=C2)C(=C3C=CC(=NC4=CC=CC=C4)C=C3)C5=CC=C(C=C5)NC6=CC=CC=C6S(=O)(=O)O,001324-76-1,-8.37709809,O=S(=O)(O)c1ccccc1Nc1ccc(C(=C2C=CC(=Nc3ccccc3)C=C2)c2ccc(Nc3ccccc3)cc2)cc1
3097,B-7871,3-amino-5-(2.3-dihydroxypropylcarbamoyl)-2.4.6-triiodobenzoic acid,URFBLIYCWAORDM-UHFFFAOYSA-N,C(C(CO)O)NC(=O)C1=C(C(=C(C(=C1I)N)I)C(=O)O)I,111453-32-8,-1.2901252,Nc1c(I)c(C(=O)O)c(I)c(C(=O)NCC(O)CO)c1I
3098,B-7872,butyl 2-[[2-hydroxy-3-[(2-oxo-1.3-dihydrobenzimidazol-5-yl)carbamoyl]naphthalen-1-yl]diazenyl]benzoate,OFVRAFISISJRPV-UHFFFAOYSA-N,CCCCOC(=O)C1=CC=CC=C1N=NC2=C(C(=CC3=CC=CC=C32)C(=O)NC4=CC5=C(C=C4)NC(=O)N5)O,031778-10-6,-8.213805697,CCCCOC(=O)c1ccccc1N=Nc1c(O)c(C(=O)Nc2ccc3[nH]c(=O)[nH]c3c2)cc2ccccc12
3099,B-7873,4-[4-(hydrazinesulfonyl)phenoxy]benzenesulfonohydrazide,NBOCQTNZUPTTEI-UHFFFAOYSA-N,C1=CC(=CC=C1OC2=CC=C(C=C2)S(=O)(=O)NN)S(=O)(=O)NN,000080-51-3,-3.758471503,NNS(=O)(=O)c1ccc(Oc2ccc(S(=O)(=O)NN)cc2)cc1
3100,B-7874,[(2R.3S)-3-[(3R)-3-(methylsulfonyloxymethyl)oxiran-2-yl]oxiran-2-yl]methyl methanesulfonate,MFJOKRDJJGVHTE-HBFKVTOISA-N,CS(=O)(=O)OC[C@@H]1[C@H](O1)C2[C@H](O2)COS(=O)(=O)C,063449-88-7,-4.103881015,CS(=O)(=O)OCC1OC1C1OC1COS(C)(=O)=O