,C_ID,Name,InChIKey,SMILES,CAS,LogS,smiles_canon
3522,B-8631,5-fluoro-3-(1-methylpyrrolidin-2-yl)-1H-indole,OBIXHSPVWCWIOW-UHFFFAOYSA-N,CN1CCCC1C1C[NH]C2C1CC(F)CC2,001815-29-8,-1.876605979,CN1CCCC1C1CNC2CCC(F)CC21
3523,B-8632,1-(4-methoxyphenyl)propan-2-one,WFWKNGZODAOLEO-UHFFFAOYSA-N,COC1CCC(CC1)CC(=O)C,000122-84-9,-1.314143404,COC1CCC(CC(C)=O)CC1
3524,B-8633,1-cyclopentyl-5-dimethylamino-3.6-dimethylpyrimidine-2.4-dione,ADLZRPUDXVXGRQ-UHFFFAOYSA-N,CN(C1C(C)N(C2CCCC2)C(=O)N(C1=O)C)C,032150-44-0,-2.650508016,CC1C(N(C)C)C(=O)N(C)C(=O)N1C1CCCC1
3525,B-8635,(10Z)-tricyclo[10.4.0.03.8]hexadeca-1(12).3.5.7.10.13-hexaen-9-ol,NNRDTDHBXOGJDV-KTKRTIGZSA-N,OC1C=CC2=C(CC3C1CCCC3)CCC=C2,063918-61-6,-5.008412382,OC1C=CC2=C(CCC=C2)CC2CCCCC12
3526,B-8636,4-phenylsulfanylbenzaldehyde,VDNBWBPUFMZCEW-UHFFFAOYSA-N,O=CC1CCC(CC1)SC1CCCCC1,001208-88-4,-4.184857656,O=CC1CCC(SC2CCCCC2)CC1
3527,B-8637,1-(4-methylphenyl)-3-piperidin-1-ylpyrrolidin-2-one,WVIDHXRYTCCXBY-UHFFFAOYSA-N,O=C1C(CCN1C1CCC(CC1)C)N1CCCCC1,005378-68-7,-3.429962431,CC1CCC(N2CCC(N3CCCCC3)C2=O)CC1
3528,B-8638,2-[4-(2-methylpropyl)phenyl]butanoic acid,UULSXYSSHHRCQK-UHFFFAOYSA-N,CCC(C1CCC(CC1)CC(C)C)C(=O)O,055837-18-8,-3.70997388,CCC(C(=O)O)C1CCC(CC(C)C)CC1
3529,B-8639,6-chlorochromen-2-one,AMQSYJCKXPUEDR-UHFFFAOYSA-N,ClC1CCC2C(C1)CCC(=O)O2,002051-59-4,-2.359059416,O=C1CCC2CC(Cl)CCC2O1
3530,B-8641,2-[3-(dimethylamino)propyl]tricyclo[9.4.0.03.8]pentadeca-1(15).3.5.7.11.13-hexaen-2-ol,ONSQUXZPOPTSQF-UHFFFAOYSA-N,CN(CCCC1(O)C2CCCCC2CCC2C1CCCC2)C,001159-03-1,-5.158694839,CN(C)CCCC1(O)C2CCCCC2CCC2CCCCC21
3531,B-8642,3-[2-[(E)-pent-3-enyl]piperidin-1-yl]propyl benzoate,ZLAMOIIYVOQQBW-NSCUHMNNSA-N,C/C=C/CCC1CCCCN1CCCOC(=O)C1CCCCC1,064050-35-7,-5.227098562,CC=CCCC1CCCCN1CCCOC(=O)C1CCCCC1
3532,B-8643,6-methylchromen-2-one,FXFYOPQLGGEACP-UHFFFAOYSA-N,CC1CCC2C(C1)CCC(=O)O2,000092-48-8,-2.261438469,CC1CCC2OC(=O)CCC2C1
3533,B-8644,N.N-dimethyl-2-[2-(phenylmethyl)phenoxy]ethanamine,IZRPKIZLIFYYKR-UHFFFAOYSA-N,CN(CCOC1CCCCC1CC1CCCCC1)C,009008-95-1,-2.912721655,CN(C)CCOC1CCCCC1CC1CCCCC1
3534,B-8645,N.N-dimethyl-3-(1-phenyl-3.4-dihydro-2H-isoquinolin-1-yl)propan-1-amine,QLKCCGLEUFIVEC-UHFFFAOYSA-N,CN(CCCC1(NCCC2C1CCCC2)C1CCCCC1)C,063937-68-8,-3.389818498,CN(C)CCCC1(C2CCCCC2)NCCC2CCCCC21
3535,B-8646,(1R.9R.10R)-17-methyl-17-azatetracyclo[7.5.3.01.10.02.7]heptadeca-2(7).3.5-triene-3.4-diol,VCPXRQXUZJVACG-OGHNNQOOSA-N,CN1CC[C@@]23[C@H]([C@H]1CC1C3C(O)C(CC1)O)CCCC2,063690-32-4,-2.106346627,CN1CCC23CCCCC2C1CC1CCC(O)C(O)C13
3536,B-8647,(1-phenylcyclopropyl)methanol,APALRPYIDIBHQN-UHFFFAOYSA-N,OCC1(CC1)C1CCCCC1,031729-66-5,-1.75924315,OCC1(C2CCCCC2)CC1
3537,B-8648,2-chloro-N.N-dimethylpyrimidin-4-amine,MTEQLYDOCFPCAX-UHFFFAOYSA-N,ClC1NCCC(N1)N(C)C,031058-81-8,-1.001659316,CN(C)C1CCNC(Cl)N1
3538,B-8649,1-(1H-indol-3-yl)-N.N-dimethylmethanamine,OCDGBSUVYYVKQZ-UHFFFAOYSA-N,CN(CC1C[NH]C2C1CCCC2)C,000087-52-5,-1.454342905,CN(C)CC1CNC2CCCCC12
3539,B-8650,(6aR)-1.2-dimethoxy-6-methyl-5.6.6a.7-tetrahydro-4H-dibenzo[de.g]quinoline,ORJVQPIHKOARKV-OAHLLOKOSA-N,COC1CC2CCN([C@H]3C2C(C1OC)C1CCCCC1C3)C,000475-83-2,-4.349810081,COC1CC2CCN(C)C3CC4CCCCC4C(C1OC)C23
3540,B-8651,N-(4-methyl-1.3-oxazol-2-yl)acetamide,KRQWFVYRQYTWRH-UHFFFAOYSA-N,CC(=O)NC1OCC(N1)C,035629-36-8,-0.638712439,CC(=O)NC1NC(C)CO1
3541,B-8652,2-(3.5-dimethylpyrazol-1-yl)-1H-benzimidazole,RUGYNGIMTAFTLP-UHFFFAOYSA-N,CC1NN(C(C1)C)C1NC2C([NH]1)CCCC2,040341-04-6,-2.081347308,CC1CC(C)N(C2NC3CCCCC3N2)N1
3542,B-8653,N'.N'-dimethyl-N-(phenylmethyl)-N-pyrimidin-2-ylethane-1.2-diamine,SVBNKTIROPNBQH-UHFFFAOYSA-N,CN(CCN(C1NCCCN1)CC1CCCCC1)C,000531-08-8,-1.838295464,CN(C)CCN(CC1CCCCC1)C1NCCCN1
3543,B-8656,N.N-dimethyl-3-[2-(trifluoromethyl)phenothiazin-10-yl]propan-1-amine,XSCGXQMFQXDFCW-UHFFFAOYSA-N,CN(CCCN1C2CCCCC2SC2C1CC(CC2)C(F)(F)F)C,017146-88-2,-5.3000002,CN(C)CCCN1C2CCCCC2SC2CCC(C(F)(F)F)CC21
3544,B-8657,tricyclo[9.4.0.03.8]pentadeca-1(15).3.5.7.9.11.13-heptaen-2-amine,HKLYXHWNPAGMMW-UHFFFAOYSA-N,NC1C2CCCCC2C=CC2C1CCCC2,031721-90-1,-3.778729924,NC1C2CCCCC2C=CC2CCCCC21
3545,B-8658,(E)-3-(4-chlorophenyl)prop-2-enenitrile,PPCNBCKABHGVMX-OWOJBTEDSA-N,N#C/C=C/C1CCC(CC1)Cl,028446-72-2,-2.780824627,N#CC=CC1CCC(Cl)CC1
3546,B-8659,N-(2.6-Dimethylphenyl)-5.6-dihydro-4H-1.3-thiazin-2-amine,BPICBUSOMSTKRF-UHFFFAOYSA-N,CC1CCCC(C1NC1=NCCCS1)C,007361-61-7,-5.391452625,CC1CCCC(C)C1NC1=NCCCS1
3547,B-8660,1-ethyl-13-methyl-10-prop-2-enyl-10-azatricyclo[7.3.1.02.7]trideca-2(7).3.5-trien-4-ol,DVLZNYFUUUDCOL-UHFFFAOYSA-N,C=CCN1CCC2(C(C1CC1C2CC(CC1)O)C)CC,014930-84-8,-3.484714467,C=CCN1CCC2(CC)C(C)C1CC1CCC(O)CC12
3548,B-8663,5-ethylbenzo[b][1.4]benzoxazepin-6-one,MRBRHCRUXKHKKI-UHFFFAOYSA-N,CCN1C(=O)C2CCCCC2OC2C1CCCC2,017296-50-3,-3.6800001,CCN1C(=O)C2CCCCC2OC2CCCCC21
3549,B-8664,7-methyl-3-(1-methylpyrrolidin-2-yl)-1H-indole,PALMSMPURBFZAO-UHFFFAOYSA-N,CN1CCCC1C1C[NH]C2C1CCCC2C,019137-72-5,-2.143525768,CC1CCCC2C(C3CCCN3C)CNC12
3550,B-8665,2.3.4.5.6-Pentafluorobenzoic acid,YZERDTREOUSUHF-UHFFFAOYSA-N,FC1C(F)C(C(=O)O)C(C(C1F)F)F,000602-94-8,-1.479472378,O=C(O)C1C(F)C(F)C(F)C(F)C1F
3551,B-8666,ethyl 1-methyl-4-phenylazepane-4-carboxylate,WGJHHMKQBWSQIY-UHFFFAOYSA-N,CCOC(=O)C1(CCCN(CC1)C)C1CCCCC1,000077-15-6,-2.667897653,CCOC(=O)C1(C2CCCCC2)CCCN(C)CC1
3552,B-8667,4.5.7-trichloro-3H-1.3-benzoxazol-2-one,DEUSSOTUEGORRC-UHFFFAOYSA-N,O=C1[NH]C2C(O1)C(Cl)CC(C2Cl)Cl,064037-31-6,-3.398756736,O=C1NC2C(Cl)C(Cl)CC(Cl)C2O1
3553,B-8668,10-(1-azabicyclo[2.2.2]octan-8-ylmethyl)phenothiazine,HOKDBMAJZXIPGC-UHFFFAOYSA-N,C1CCC2C(C1)N(CC1CN3CCC1CC3)C1C(S2)CCCC1,029216-28-2,-5.887624842,C1CCC2C(C1)SC1CCCCC1N2CC1CN2CCC1CC2
3554,B-8669,2-(4-chlorophenyl)-3-methylbutane-2.3-diol,HTYIXCKSEQQCJO-UHFFFAOYSA-N,CC(C(O)(C)C)(C1CCC(CC1)Cl)O,000079-93-6,-2.819926432,CC(C)(O)C(C)(O)C1CCC(Cl)CC1
3555,B-8671,5-chloro-3-(1-methylpyrrolidin-2-yl)-1H-indole,KSVBDCVNOLOLNW-UHFFFAOYSA-N,CN1CCCC1C1C[NH]C2C1CC(Cl)CC2,019134-31-7,-2.375366775,CN1CCCC1C1CNC2CCC(Cl)CC21
3556,B-8672,3-cyclopentyl-5-dimethylamino-1.6-dimethylpyrimidine-2.4-dione,KAHQJDOPZZKJHB-UHFFFAOYSA-N,CN(C1C(C)N(C)C(=O)N(C1=O)C1CCCC1)C,032150-39-3,-2.650508016,CC1C(N(C)C)C(=O)N(C2CCCC2)C(=O)N1C
3557,B-8674,4-Ethoxy-N-ethyl-6-methyl-1.3.5-triazin-2-amine,AFGWGIRVJYUUMY-UHFFFAOYSA-N,CCNC1NC(OCC)NC(N1)C,005248-41-9,-2.914259775,CCNC1NC(C)NC(OCC)N1
3558,B-8675,3-(2-piperidin-1-ylethyl)-1H-indole,PJVCNRSWJSLGCV-UHFFFAOYSA-N,C1CCN(CC1)CCC1C[NH]C2C1CCCC2,026628-87-5,-2.680061716,C1CCN(CCC2CNC3CCCCC23)CC1
3559,B-8676,2-methoxy-1-(phenoxy)-4-prop-2-enylbenzene,JXCFPQRFQYEEGF-UHFFFAOYSA-N,C=CCC1CCC(C(C1)OC)OC1CCCCC1,018738-93-7,-4.952622591,C=CCC1CCC(OC2CCCCC2)C(OC)C1
3560,B-8678,(2-amino-5-chlorophenyl)-phenylmethanone,ZUWXHHBROGLWNH-UHFFFAOYSA-N,ClC1CCC(C(C1)C(=O)C1CCCCC1)N,068863-78-5,-4.255308123,NC1CCC(Cl)CC1C(=O)C1CCCCC1
3561,B-8679,8-chloro-6-(4-methylpiperazin-1-yl)benzo[b][1.5]benzothiazepine,KAAZGXDPUNNEFN-UHFFFAOYSA-N,CN1CCN(CC1)C1=NC2CCCCC2SC2C1CC(Cl)CC2,002058-52-8,-4.097539405,CN1CCN(C2=NC3CCCCC3SC3CCC(Cl)CC23)CC1
3562,B-8681,1-(1.3-benzodioxol-5-yl)butan-2-amine,VHMRXGAIDDCGDU-UHFFFAOYSA-N,CCC(CC1CCC2C(C1)OCO2)N,103818-45-7,-1.574303284,CCC(N)CC1CCC2OCOC2C1
3563,B-8682,1.13-dimethyl-10-azatricyclo[7.3.1.02.7]trideca-2(7).3.5-trien-4-ol,DXESFJJJWBHLJX-UHFFFAOYSA-N,OC1CCC2C(C1)C1(C)CCNC(C2)C1C,052079-30-8,-1.768881985,CC1C2CC3CCC(O)CC3C1(C)CCN2
3564,B-8683,2-(2-methoxyphenyl)-1.3-dithiane,MDUCGIRKSXVGBH-UHFFFAOYSA-N,COC1CCCCC1C1SCCCS1,024588-70-3,-4.175807408,COC1CCCCC1C1SCCCS1
3565,B-8684,2-(4-methoxyphenyl)-1.3-dithiolane,JYWZOJISGOBZDP-UHFFFAOYSA-N,COC1CCC(CC1)C1SCCS1,006712-20-5,-3.654903275,COC1CCC(C2SCCS2)CC1
3566,B-8687,2-diethylamino-1-(2.2.6.6-tetramethyl-4-phenylpiperidin-1-yl)ethanone,AHPNNQWLCKYVLJ-UHFFFAOYSA-N,CCN(CC(=O)N1C(C)(C)CC(CC1(C)C)C1CCCCC1)CC,053725-56-7,-5.360829983,CCN(CC)CC(=O)N1C(C)(C)CC(C2CCCCC2)CC1(C)C
3567,B-8688,3-(4-bromophenyl)-N.N-dimethyl-3-pyridin-3-ylprop-2-en-1-amine,OYPPVKRFBIWMSX-SXGWCWSVSA-N,CN(C/C=C(\C1CCCNC1)/C1CCC(CC1)Br)C,056775-88-3,-3.218525662,CN(C)CC=C(C1CCC(Br)CC1)C1CCCNC1
3568,B-8689,3-(2-methylpiperidin-1-yl)propyl 4-propan-2-ylbenzoate,TZWVMGRCJXLVLO-UHFFFAOYSA-N,CC1CCCCN1CCCOC(=O)C1CCC(CC1)C(C)C,063916-93-8,-4.871421268,CC(C)C1CCC(C(=O)OCCCN2CCCCC2C)CC1
3569,B-8690,2-methyl-1-[2-(3-nitrophenyl)ethyl]-3.4.5.6.7.8-hexahydro-1H-isoquinoline,XQUJIUXPLNHJMQ-UHFFFAOYSA-N,CN1CCC2=C(C1CCC1CCCC(C1)[N+](=O)[O-])CCCC2,063938-01-2,-5.222430329,CN1CCC2=C(CCCC2)C1CCC1CCCC([N+](=O)[O-])C1
3570,B-8691,6-hexylnaphthalen-2-ol,YLSRNLBJYQACQD-UHFFFAOYSA-N,CCCCCCC1CCC2C(C1)CCC(C2)O,001999-56-0,-5.146384901,CCCCCCC1CCC2CC(O)CCC2C1
3571,B-8692,1-(2-dimethylaminoethyl)-4.5-dihydro-3H-1-benzazepin-2-one,TWCFVUDIMLCADK-UHFFFAOYSA-N,CN(CCN1C(=O)CCCC2C1CCCC2)C,054951-29-0,-2.219971649,CN(C)CCN1C(=O)CCCC2CCCCC21
3572,B-8694,1-(2-phenyl-1.3-benzothiazol-5-yl)ethanone,VMFVHQCMVQSENS-UHFFFAOYSA-N,CC(=O)C1CCC2C(C1)NC(S2)C1CCCCC1,037554-60-2,-4.134154821,CC(=O)C1CCC2SC(C3CCCCC3)NC2C1
3573,B-8695,1-(4-fluorophenyl)-3-piperidin-1-ylpyrrolidin-2-one,YQTAUCCALHOTQC-UHFFFAOYSA-N,O=C1C(CCN1C1CCC(CC1)F)N1CCCCC1,005301-29-1,-2.570039947,O=C1C(N2CCCCC2)CCN1C1CCC(F)CC1
3574,B-8696,3-(1-methyl-3-propylpyrrolidin-3-yl)phenol,VFUGCQKESINERB-UHFFFAOYSA-N,CCCC1(CCN(C1)C)C1CCCC(C1)O,000428-37-5,-2.010680305,CCCC1(C2CCCC(O)C2)CCN(C)C1
3575,B-8698,4.7-dimethoxy-5-prop-2-enyl-1.3-benzodioxole,QQRSPHJOOXUALR-UHFFFAOYSA-N,C=CCC1CC(OC)C2C(C1OC)OCO2,083382-66-5,-3.511639178,C=CCC1CC(OC)C2OCOC2C1OC
3576,B-8700,3-methyl-4-phenylbutanoic acid,CJBVVZBGGFKPDA-UHFFFAOYSA-N,CC(CC1CCCCC1)CC(=O)O,007315-68-6,-2.834342736,CC(CC(=O)O)CC1CCCCC1
3577,B-8701,2-methyl-1-[2-(4-nitrophenyl)ethyl]-3.4.5.6.7.8-hexahydro-1H-isoquinoline,NHZSGFPRDZNUNP-UHFFFAOYSA-N,CN1CCC2=C(C1CCC1CCC(CC1)[N+](=O)[O-])CCCC2,063938-03-4,-5.222430329,CN1CCC2=C(CCCC2)C1CCC1CCC([N+](=O)[O-])CC1
3578,B-8702,3-(2-methylpiperidin-1-yl)propyl (E)-3-phenylprop-2-enoate,SEBFSSWJENDFFN-VAWYXSNFSA-N,O=C(/C=C/C1CCCCC1)OCCCN1CCCCC1C,063938-15-8,-3.981370073,CC1CCCCN1CCCOC(=O)C=CC1CCCCC1
3579,B-8703,2.3.5.6-Tetramethylbenzoic acid,STIDRZRESMTQBD-UHFFFAOYSA-N,CC1CC(C)C(C(C1C)C(=O)O)C,002604-45-7,-3.0334993,CC1CC(C)C(C)C(C(=O)O)C1C
3580,B-8704,2-[(3.5-dibromo-2-methoxyphenyl)methoxy]-N.N-diethylethanamine,NPKOWFSBIXNSIE-UHFFFAOYSA-N,CCN(CCOCC1CC(Br)CC(C1OC)Br)CC,025333-96-4,-3.852217838,CCN(CC)CCOCC1CC(Br)CC(Br)C1OC
3581,B-8705,6-methoxypyridin-3-amine,UUVDJIWRSIJEBS-UHFFFAOYSA-N,COC1CCC(CN1)N,006628-77-9,-0.149192876,COC1CCC(N)CN1
3582,B-8706,(E)-3-(4-methylphenyl)prop-2-enenitrile,WHECQDVQLPVCRX-NSCUHMNNSA-N,N#C/C=C/C1CCC(CC1)C,028446-70-0,-2.548454633,CC1CCC(C=CC#N)CC1
3583,B-8707,2-methyl-3-(1-methylpyrrolidin-2-yl)-1H-indole,CWGDEZCIDYRJGS-UHFFFAOYSA-N,CN1CCCC1C1C(C)[NH]C2C1CCCC2,019134-06-6,-2.143525768,CC1NC2CCCCC2C1C1CCCN1C
3584,B-8708,1-Phenylprop-2-yn-1-ol,UIGLAZDLBZDVBL-UHFFFAOYSA-N,OC(C1CCCCC1)C#C,004187-87-5,-0.46204653,C#CC(O)C1CCCCC1
3585,B-8711,ethoxymethyl 2-[(2.6-dichloro-3-methylphenyl)amino]benzoate,FRQSLQPWXFAJFO-UHFFFAOYSA-N,CCOCOC(=O)C1CCCCC1NC1C(Cl)CCC(C1Cl)C,029098-15-5,-6.665790559,CCOCOC(=O)C1CCCCC1NC1C(Cl)CCC(C)C1Cl
3586,B-8713,4-Butoxyaniline,UBRIHZOFEJHMIT-UHFFFAOYSA-N,CCCCOC1CCC(CC1)N,004344-55-2,-2.653438583,CCCCOC1CCC(N)CC1
3587,B-8714,di(phenyl)-piperidin-2-ylmethanol,XSWHNYGMWWVAIE-UHFFFAOYSA-N,OC(C1CCCCC1)(C1CCCCC1)C1CCCCN1,018717-93-6,-3.085088253,OC(C1CCCCC1)(C1CCCCC1)C1CCCCN1
3588,B-8715,1-phenyl-3-pyrrolidin-1-ylpyrrolidin-2-one,OUGSOKCMASPUBA-UHFFFAOYSA-N,O=C1C(CCN1C1CCCCC1)N1CCCC1,005301-31-5,-2.337008816,O=C1C(N2CCCC2)CCN1C1CCCCC1
3589,B-8717,2-[1-(4-bromophenyl)-1-phenylethoxy]-N.N-dimethylethanamine,URSRSKSNFPUKGH-UHFFFAOYSA-N,CN(CCOC(C1CCC(CC1)Br)(C1CCCCC1)C)C,003565-72-8,-5.602663937,CN(C)CCOC(C)(C1CCCCC1)C1CCC(Br)CC1
3590,B-8718,3-(2-fluorophenyl)prop-2-enoic acid,IOUDZAFBPDDAMK-AATRIKPKSA-N,OC(=O)/C=C/C1CCCCC1F,018944-77-9,-1.95805187,O=C(O)C=CC1CCCCC1F
3591,B-8719,1-(2-methylphenyl)propan-2-ylhydrazine,IFOAVKYGEODTRQ-UHFFFAOYSA-N,NNC(CC1CCCCC1C)C,016603-03-5,-2.057148174,CC(CC1CCCCC1C)NN
3592,B-8722,(6aR)-10-methoxy-6-methyl-5.6.6a.7-tetrahydro-4H-dibenzo[de.g]quinolin-11-ol,DZUOQMBJJSBONO-CQSZACIVSA-N,COC1CCC2C(C1O)C1CCCC3C1[C@@H](C2)N(C)CC3,000641-36-1,-3.221882211,COC1CCC2CC3C4C(CCCC4C2C1O)CCN3C
3593,B-8724,1.1-di(phenyl)-4-piperidin-1-ylbutan-1-ol,OGAKLTJNUQRZJU-UHFFFAOYSA-N,OC(C1CCCCC1)(C1CCCCC1)CCCN1CCCCC1,000972-02-1,-4.696106651,OC(CCCN1CCCCC1)(C1CCCCC1)C1CCCCC1
3594,B-8726,(E)-1-(2-hydroxyphenyl)-3-phenylprop-2-en-1-one,AETKQQBRKSELEL-ZHACJKMWSA-N,O=C(C1CCCCC1O)/C=C/C1CCCCC1,000888-12-0,-3.633912158,O=C(C=CC1CCCCC1)C1CCCCC1O
3595,B-8728,1-(4-methylphenyl)-3-pyrrolidin-1-ylpyrrolidin-2-one,VKERRRJLZIDHSP-UHFFFAOYSA-N,O=C1C(CCN1C1CCC(CC1)C)N1CCCC1,006103-52-2,-2.907984072,CC1CCC(N2CCC(N3CCCC3)C2=O)CC1
3596,B-8730,1-phenyl-1-[3-(trifluoromethyl)phenyl]propan-1-ol,DVASNQYQOZHAJN-UHFFFAOYSA-N,CCC(C1CCCC(C1)C(F)(F)F)(C1CCCCC1)O,056430-99-0,-4.195726165,CCC(O)(C1CCCCC1)C1CCCC(C(F)(F)F)C1
3597,B-8731,3-(2-methylpiperidin-1-yl)propyl 4-hexoxybenzoate,QAQQSUVDOHQMHB-UHFFFAOYSA-N,CCCCCCOC1CCC(CC1)C(=O)OCCCN1CCCCC1C,063916-83-6,-6.233857081,CCCCCCOC1CCC(C(=O)OCCCN2CCCCC2C)CC1
3598,B-8732,2-(4-methoxyphenyl)-1.3-dithiane,INEZXIFHJBJBRB-UHFFFAOYSA-N,COC1CCC(CC1)C1SCCCS1,024588-72-5,-4.175807408,COC1CCC(C2SCCCS2)CC1
3599,B-8736,methyl 2-[(2.3-dimethylphenyl)amino]benzoate,LCCVYZLUEHOBDC-UHFFFAOYSA-N,COC(=O)C1CCCCC1NC1CCCC(C1C)C,001222-42-0,-5.823880959,COC(=O)C1CCCCC1NC1CCCC(C)C1C
3600,B-8738,3-(2-methylpiperidin-1-yl)propyl 4-butoxybenzoate,PGDPFMRYKOURHD-UHFFFAOYSA-N,CCCCOC1CCC(CC1)C(=O)OCCCN1CCCCC1C,063916-68-7,-5.192645575,CCCCOC1CCC(C(=O)OCCCN2CCCCC2C)CC1
3601,B-8739,N'-(5-chloro-1.3-benzoxazol-2-yl)-N.N-dimethylpropane-1.3-diamine,UPXNTQIUGPERQJ-UHFFFAOYSA-N,CN(CCCNC1NC2C(O1)CCC(C2)Cl)C,064037-21-4,-2.433095971,CN(C)CCCNC1NC2CC(Cl)CCC2O1
3602,B-8740,5-(bromomethyl)-3-(4-chlorophenyl)-1.2-oxazole,YGCXXYLQISERCR-UHFFFAOYSA-N,BrCC1ONC(C1)C1CCC(CC1)Cl,005300-92-5,-4.189895274,ClC1CCC(C2CC(CBr)ON2)CC1
3603,B-8741,3-[3-(4-chlorophenyl)-2.3.4.5-tetrahydro-1-benzazepin-1-yl]-N.N-di(propan-2-yl)propan-1-amine,PVTZHDYDAGYCAX-UHFFFAOYSA-N,ClC1CCC(CC1)C1CCC2C(N(C1)CCCN(C(C)C)C(C)C)CCCC2,064058-63-5,-7.567569842,CC(C)N(CCCN1CC(C2CCC(Cl)CC2)CCC2CCCCC21)C(C)C
3604,B-8742,2-diethylaminoethyl 1-phenylcyclopentane-1-carboxylate,OFAIGZWCDGNZGT-UHFFFAOYSA-N,CCN(CCOC(=O)C1(CCCC1)C1CCCCC1)CC,000077-22-5,-4.147027826,CCN(CC)CCOC(=O)C1(C2CCCCC2)CCCC1
3605,B-8744,3-(phenylmethylidene)-2-benzofuran-1-one,YRTPZXMEBGTPLM-UVTDQMKNSA-N,O=C1O/C(=C\C2CCCCC2)/C2C1CCCC2,000575-61-1,-3.173641822,O=C1OC(=CC2CCCCC2)C2CCCCC12
3606,B-8746,4-Ethoxy-N.6-diethyl-1.3.5-triazin-2-amine,OBDQAMHBCJKXJD-UHFFFAOYSA-N,CCNC1NC(OCC)NC(N1)CC,006864-23-9,-3.436694073,CCNC1NC(CC)NC(OCC)N1
3607,B-8747,2-bromo-1-(4-chlorophenyl)ethanone,FLAYZKKEOIAALB-UHFFFAOYSA-N,BrCC(=O)C1CCC(CC1)Cl,000536-38-9,-3.252988834,O=C(CBr)C1CCC(Cl)CC1
3608,B-8748,6-butoxypyridin-3-amine,DAFKCYYRSZSMAJ-UHFFFAOYSA-N,CCCCOC1CCC(CN1)N,000539-23-1,-2.033173008,CCCCOC1CCC(N)CN1
3609,B-8749,ethyl 6H-phenanthridine-5-carboxylate,KAJKCHGGCRPQLG-UHFFFAOYSA-N,CCOC(=O)N1CC2CCCCC2C2C1CCCC2,029712-69-4,-5.260622087,CCOC(=O)N1CC2CCCCC2C2CCCCC21
3610,B-8750,chromene-2-thione,FRZDLTCXOSFHJC-UHFFFAOYSA-N,S=C1CCC2C(O1)CCCC2,003986-98-9,-1.801826923,S=C1CCC2CCCCC2O1
3611,B-8752,5-chloro-3-(dimethylaminomethyl)-1.3-benzoxazol-2-one,DXPMJCLOFQOSSS-UHFFFAOYSA-N,CN(CN1C(=O)OC2C1CC(Cl)CC2)C,019986-35-7,-1.162250286,CN(C)CN1C(=O)OC2CCC(Cl)CC21
3612,B-8754,2-(1-hydroxy-2-methylaminopropyl)phenol,CFEPSQISKFBCRD-UHFFFAOYSA-N,CNC(C(C1CCCCC1O)O)C,064038-76-2,0.741757928,CNC(C)C(O)C1CCCCC1O
3613,B-8755,1-(5-nitrofuran-2-yl)ethanone,ORQQKSZUXNAWAX-UHFFFAOYSA-N,CC(=O)C1CCC(O1)[N+](=O)[O-],005275-69-4,-1.247142454,CC(=O)C1CCC([N+](=O)[O-])O1
3614,B-8757,3-(2-methylpiperidin-1-yl)propyl 2-iodobenzoate,CYJRWJOMFVGVDK-UHFFFAOYSA-N,CC1CCCCN1CCCOC(=O)C1CCCCC1I,063916-88-1,-5.25355,CC1CCCCN1CCCOC(=O)C1CCCCC1I
3615,B-8759,methyl 6-methyl-2-(2-piperidin-1-ylethoxy)-3-propan-2-ylbenzoate,DSCOGGPZXUKTID-UHFFFAOYSA-N,COC(=O)C1C(C)CCC(C1OCCN1CCCCC1)C(C)C,052073-26-4,-4.766408782,COC(=O)C1C(C)CCC(C(C)C)C1OCCN1CCCCC1
3616,B-8760,2-[2-(2-methylpiperidin-1-yl)ethoxy]ethyl benzoate,HKCCFWTYDQUANZ-UHFFFAOYSA-N,CC1CCCCN1CCOCCOC(=O)C1CCCCC1,064050-31-3,-2.904569494,CC1CCCCN1CCOCCOC(=O)C1CCCCC1
3617,B-8764,2-phenanthren-2-ylpropanal,ODMDVXBFLZLMOV-UHFFFAOYSA-N,O=CC(C1CCC2C(C1)CCC1C2CCCC1)C,040452-15-1,-5.701382665,CC(C=O)C1CCC2C(CCC3CCCCC32)C1
3618,B-8765,1-(2-phenylethyl)piperidin-4-one,YDJXNYNKKXZBMP-UHFFFAOYSA-N,O=C1CCN(CC1)CCC1CCCCC1,039742-60-4,-0.808418251,O=C1CCN(CCC2CCCCC2)CC1
3619,B-8767,4-Butoxy-N-ethyl-6-methyl-1.3.5-triazin-2-amine,DCOORNZXFCKEKZ-UHFFFAOYSA-N,CCCCOC1NC(C)NC(N1)NCC,005248-42-0,-3.957312069,CCCCOC1NC(C)NC(NCC)N1
3620,B-8769,N-[(4-chlorophenyl)methyl]-N'.N'-dimethyl-N-pyridin-2-ylethane-1.2-diamine,ICKFFNBDFNZJSX-UHFFFAOYSA-N,CN(CCN(C1CCCCN1)CC1CCC(CC1)Cl)C,000059-32-5,-2.61775599,CN(C)CCN(CC1CCC(Cl)CC1)C1CCCCN1
3621,B-8770,3-(1.5-dimethylpyrrolidin-2-yl)-1H-indole,LQPZPKOXKQFSPK-UHFFFAOYSA-N,CN1C(C)CCC1C1C[NH]C2C1CCCC2,019137-66-7,-2.032193413,CC1CCC(C2CNC3CCCCC32)N1C
3622,B-8771,(1S)-2-amino-1-phenylethanol,ULSIYEODSMZIPX-MRVPVSSYSA-N,NC[C@H](C1CCCCC1)O,056613-81-1,-0.47999999,NCC(O)C1CCCCC1
3623,B-8772,(1.2-dimethyl-3-phenylpyrrolidin-3-yl) propanoate,LUKSBMJXPCFBKO-UHFFFAOYSA-N,CCC(=O)OC1(CCN(C1C)C)C1CCCCC1,003734-17-6,-2.519389247,CCC(=O)OC1(C2CCCCC2)CCN(C)C1C
3624,B-8773,N.4-Diethyl-6-methoxy-1.3.5-triazin-2-amine,KMUNXDCQPABTSC-UHFFFAOYSA-N,CCNC1NC(CC)NC(N1)OC,005248-48-6,-2.914259775,CCNC1NC(CC)NC(OC)N1
3625,B-8774,N-[(4-fluorophenyl)methylidene]hydroxylamine,FSKSLWXDUJVTHE-WEVVVXLNSA-N,O/N=C/C1CCC(CC1)F,000588-95-4,-1.950571548,ON=CC1CCC(F)CC1
3626,B-8775,1-(2.5-dimethoxyphenyl)propan-1-one,DKVCHMQHUMLKPO-UHFFFAOYSA-N,COC1CCC(C(C1)C(=O)CC)OC,005803-30-5,-2.604369179,CCC(=O)C1CC(OC)CCC1OC
3627,B-8776,3-(2-methylpiperidin-1-yl)propyl 4-propoxybenzoate,QSJRZMPYHHJWKX-UHFFFAOYSA-N,CCCOC1CCC(CC1)C(=O)OCCCN1CCCCC1C,064050-43-7,-4.670611734,CCCOC1CCC(C(=O)OCCCN2CCCCC2C)CC1
3628,B-8777,(1-ethylpiperidin-3-yl) N-(4-methylphenyl)carbamate,UONWZNLVCSWMSI-UHFFFAOYSA-N,CCN1CCCC(C1)OC(=O)NC1CCC(CC1)C,033531-57-6,-3.365807591,CCN1CCCC(OC(=O)NC2CCC(C)CC2)C1
3629,B-8780,ethyl 2-methoxy-2H-quinoline-1-carboxylate,ZHMOADYMMOAGSH-UHFFFAOYSA-N,CCOC(=O)N1C(OC)C=CC2C1CCCC2,019668-24-7,-3.813970277,CCOC(=O)N1C(OC)C=CC2CCCCC21
3630,B-8781,3.5-Dimethoxybenzonitrile,NVTHWSJNXVDIKR-UHFFFAOYSA-N,COC1CC(OC)CC(C1)C#N,019179-31-8,-2.108852535,COC1CC(C#N)CC(OC)C1
3631,B-8782,1-(4-dimethylaminophenyl)propan-1-one,ONCICIKBSHQJTB-UHFFFAOYSA-N,CCC(=O)C1CCC(CC1)N(C)C,026672-58-2,-2.49499581,CCC(=O)C1CCC(N(C)C)CC1
3632,B-8783,(5-chloro-1.3-benzoxazol-2-yl)hydrazine,QLFZBRRENHODQH-UHFFFAOYSA-N,NNC1NC2C(O1)CCC(C2)Cl,064037-22-5,-2.062463725,NNC1NC2CC(Cl)CCC2O1
3633,B-8784,N.N-dimethyl-4.5-di(phenyl)-1.3-oxazol-2-amine,PLGBHXSQSNOWAZ-UHFFFAOYSA-N,CN(C1NC(C(O1)C1CCCCC1)C1CCCCC1)C,014070-15-6,-5.003841879,CN(C)C1NC(C2CCCCC2)C(C2CCCCC2)O1
3634,B-8785,(1-propan-2-ylpyrrolidin-3-yl) N-(2-chloro-6-methylphenyl)carbamate,HBCOGAOXPUSAQR-UHFFFAOYSA-N,O=C(NC1C(C)CCCC1Cl)OC1CCN(C1)C(C)C,031772-86-8,-4.105100674,CC1CCCC(Cl)C1NC(=O)OC1CCN(C(C)C)C1
3635,B-8786,1-[3-(di(propan-2-yl)amino)propyl]-4.5-dihydro-3H-1-benzazepin-2-one,HVQFBBXWCVYDNC-UHFFFAOYSA-N,CC(N(C(C)C)CCCN1C(=O)CCCC2C1CCCC2)C,054951-28-9,-4.701074343,CC(C)N(CCCN1C(=O)CCCC2CCCCC21)C(C)C
3636,B-8787,4-(2-methylaminopropyl)phenol,SBUQZKJEOOQSBV-UHFFFAOYSA-N,CNC(CC1CCC(CC1)O)C,000370-14-9,-0.949526675,CNC(C)CC1CCC(O)CC1
3637,B-8788,1-(2-pyrrolidin-1-ylethyl)-4.5-dihydro-3H-1-benzazepin-2-one,UFDPCEODINHIQK-UHFFFAOYSA-N,O=C1CCCC2C(N1CCN1CCCC1)CCCC2,054951-27-8,-3.152162276,O=C1CCCC2CCCCC2N1CCN1CCCC1
3638,B-8789,2-(4-chlorophenyl)-2-ethylpropane-1.3-diol,PKVHOAMFMQZDHR-UHFFFAOYSA-N,CCC(C1CCC(CC1)Cl)(CO)CO,025451-05-2,-2.915169286,CCC(CO)(CO)C1CCC(Cl)CC1
3639,B-8790,methyl acridine-9-carboxylate,PGWHWYBRRVQFCI-UHFFFAOYSA-N,COC(=O)C1C2CCCCC2NC2C1CCCC2,005132-81-0,-4.734739428,COC(=O)C1C2CCCCC2NC2CCCCC21