,C_ID,Name,InChIKey,SMILES,CAS,LogS,smiles_canon
2743,B-7506,2-bromo-N-[2-(2.3-dichlorophenyl)-1.3-benzoxazol-5-yl]benzamide,UYYILPXIPBDVHY-UHFFFAOYSA-N,C1=CC=C(C(=C1)C(=O)NC2=CC3=C(C=C2)OC(=N3)C4=C(C(=CC=C4)Cl)Cl)Br,005718-26-3,-6.02131064,O=C(Nc1ccc2oc(-c3cccc(Cl)c3Cl)nc2c1)c1ccccc1Br
2744,B-7507,pyrimidine-2.4.6-triamine,JTTIOYHBNXDJOD-UHFFFAOYSA-N,C1=C(N=C(N=C1N)N)N,001004-38-2,-0.571031885,Nc1cc(N)nc(N)n1
2745,B-7508,2-[[2.6-dibromo-4-[2-[3.5-dibromo-4-(oxiran-2-ylmethoxy)phenyl]propan-2-yl]phenoxy]methyl]oxirane,ZJRAAAWYHORFHN-UHFFFAOYSA-N,CC(C)(C1=CC(=C(C(=C1)Br)OCC2CO2)Br)C3=CC(=C(C(=C3)Br)OCC4CO4)Br,003072-84-2,-7.395301634,CC(C)(c1cc(Br)c(OCC2CO2)c(Br)c1)c1cc(Br)c(OCC2CO2)c(Br)c1
2746,B-7509,N-(2-ethoxyphenyl)-3-hydroxynaphthalene-2-carboxamide,NXIGDUAONGBUKR-UHFFFAOYSA-N,CCOC1=CC=CC=C1NC(=O)C2=CC3=CC=CC=C3C=C2O,000092-74-0,-5.186600678,CCOc1ccccc1NC(=O)c1cc2ccccc2cc1O
2747,B-7510,4-[2-(4-hydroxy-3-prop-2-enylphenyl)propan-2-yl]-2-prop-2-enylphenol,WOCGGVRGNIEDSZ-UHFFFAOYSA-N,CC(C)(C1=CC(=C(C=C1)O)CC=C)C2=CC(=C(C=C2)O)CC=C,001745-89-7,-3.996381299,C=CCc1cc(C(C)(C)c2ccc(O)c(CC=C)c2)ccc1O
2748,B-7511,N-[3-tris(trimethylsilyloxy)silylpropyl]prop-2-enamide,VJUBAEVLVNBCON-UHFFFAOYSA-N,C[Si](C)(C)O[Si](CCCNC(=O)C=C)(O[Si](C)(C)C)O[Si](C)(C)C,115258-10-1,-7.148055187,C=CC(=O)NCCC[Si](O[Si](C)(C)C)(O[Si](C)(C)C)O[Si](C)(C)C
2749,B-7512,5-(2-bromoethyl)-5-(3-methylbutyl)-1.3-diazinane-2.4.6-trione,UJOODEOZMMNZJJ-UHFFFAOYSA-N,CC(C)CCC1(C(=O)NC(=O)NC1=O)CCBr,068413-48-9,-9.405361872,CC(C)CCC1(CCBr)C(=O)NC(=O)NC1=O
2750,B-7513,3-Amino-4-methylbenzamide,VYBKAZXQKUFAHG-UHFFFAOYSA-N,CC1=C(C=C(C=C1)C(=O)N)N,019406-86-1,-0.57672845,Cc1ccc(C(N)=O)cc1N
2751,B-7515,2-[9-(1-hydroxy-2-methylpropan-2-yl)-2.4.8.10-tetraoxaspiro[5.5]undecan-3-yl]-2-methylpropan-1-ol,BPZIYBJCZRUDEG-UHFFFAOYSA-N,CC(C)(CO)C1OCC2(CO1)COC(OC2)C(C)(C)CO,001455-42-1,-3.258110541,CC(C)(CO)C1OCC2(CO1)COC(C(C)(C)CO)OC2
2752,B-7516,bis(2-butoxyethyl) hexanedioate,IHTSDBYPAZEUOP-UHFFFAOYSA-N,CCCCOCCOC(=O)CCCCC(=O)OCCOCCCC,000141-18-4,-3.535335488,CCCCOCCOC(=O)CCCCC(=O)OCCOCCCC
2753,B-7517,1-methyl-4-methylsulfonyl-2-nitrobenzene,OXBDLEXAVKAJFD-UHFFFAOYSA-N,CC1=C(C=C(C=C1)S(=O)(=O)C)[N+](=O)[O-],001671-49-4,-2.764687764,Cc1ccc(S(C)(=O)=O)cc1[N+](=O)[O-]
2754,B-7519,2-(6.11-dioxonaphtho[2.3-g][1.3]benzothiazol-2-yl)naphtho[2.3-g][1.3]benzothiazole-6.11-dione,VYPILCHHNHVAAE-UHFFFAOYSA-N,C1=CC=C2C(=C1)C(=O)C3=C(C2=O)C4=C(C=C3)N=C(S4)C5=NC6=C(S5)C7=C(C=C6)C(=O)C8=CC=CC=C8C7=O,006798-03-4,-2.422060847,O=C1c2ccccc2C(=O)c2c1ccc1nc(-c3nc4ccc5c(c4s3)C(=O)c3ccccc3C5=O)sc21
2755,B-7520,N.N-bis(2-chloroethyl)-4-[2-(phenoxymethyl)-1.3-thiazol-4-yl]aniline,VDYMQBJZQMXSID-UHFFFAOYSA-N,C1=CC=C(C=C1)OCC2=NC(=CS2)C3=CC=C(C=C3)N(CCCl)CCCl,033885-52-8,-4.576551215,ClCCN(CCCl)c1ccc(-c2csc(COc3ccccc3)n2)cc1
2756,B-7521,2-(cyclohexyl-(phenylmethoxycarbonyl)amino)acetic acid,WGHGYDKEIHJBHZ-UHFFFAOYSA-N,C1CCC(CC1)N(CC(=O)O)C(=O)OCC2=CC=CC=C2,069901-75-3,-3.285432411,O=C(O)CN(C(=O)OCc1ccccc1)C1CCCCC1
2757,B-7522,(1R.2S.3S.5S.7S.10S.11R.14S.16R)-14.16-dihydroxy-7.11-dimethylpentacyclo[8.8.0.02.7.03.5.011.16]octadec-17-en-6-one,IYCDFUCBUZDDIU-MBYPHNFESA-N,C[C@]12CC[C@@H](C[C@]1(C=C[C@@H]3[C@@H]2CC[C@]4([C@H]3[C@@H]5C[C@@H]5C4=O)C)O)O,082543-15-5,-5.546048043,CC12CCC3C(C=CC4(O)CC(O)CCC34C)C1C1CC1C2=O
2758,B-7523,4-decanoyloxybenzoic acid,QTMHHQFADWIZCP-UHFFFAOYSA-N,CCCCCCCCCC(=O)OC1=CC=C(C=C1)C(=O)O,086960-46-5,-5.424546361,CCCCCCCCCC(=O)Oc1ccc(C(=O)O)cc1
2759,B-7525,1-[2-(2-prop-2-enoyloxypropoxy)propoxy]propan-2-yl prop-2-enoate,ZDQNWDNMNKSMHI-UHFFFAOYSA-N,CC(COCC(C)OC(=O)C=C)OCC(C)OC(=O)C=C,042978-66-5,-1.875569091,C=CC(=O)OC(C)COCC(C)OCC(C)OC(=O)C=C
2760,B-7526,4-phenyldiazenylbenzene-1.3-diamine,IWRVPXDHSLTIOC-UHFFFAOYSA-N,C1=CC=C(C=C1)N=NC2=C(C=C(C=C2)N)N,000495-54-5,-2.784785645,Nc1ccc(N=Nc2ccccc2)c(N)c1
2761,B-7527,2-[(3-methylsulfanylphenyl)carbamoyloxy]ethyl prop-2-enoate,FYRZOXZLXPDHOF-UHFFFAOYSA-N,CSC1=CC=CC(=C1)NC(=O)OCCOC(=O)C=C,1207339-61-4,-3.892907062,C=CC(=O)OCCOC(=O)Nc1cccc(SC)c1
2762,B-7528,1-hydroxy-4-[(4-methylphenyl)amino]anthracene-9.10-dione,LJFWQNJLLOFIJK-UHFFFAOYSA-N,CC1=CC=C(C=C1)NC2=C3C(=C(C=C2)O)C(=O)C4=CC=CC=C4C3=O,000081-48-1,-7.549180521,Cc1ccc(Nc2ccc(O)c3c2C(=O)c2ccccc2C3=O)cc1
2763,B-7529,4-(oxiran-2-ylmethoxy)-N.N-bis(oxiran-2-ylmethyl)aniline,AHIPJALLQVEEQF-UHFFFAOYSA-N,C1C(O1)CN(CC2CO2)C3=CC=C(C=C3)OCC4CO4,005026-74-4,-1.919233785,c1cc(N(CC2CO2)CC2CO2)ccc1OCC1CO1
2764,B-7530,4-Aminobenzamide,QIKYZXDTTPVVAC-UHFFFAOYSA-N,C1=CC(=CC=C1C(=O)N)N,002835-68-9,-1.225542196,NC(=O)c1ccc(N)cc1
2765,B-7531,propan-2-yl (2S)-2-[[(2.3.4.5.6-pentafluorophenoxy)-phenoxyphosphoryl]amino]propanoate,MIILDBHEJQLACD-ZJPIPACBSA-N,C[C@@H](C(=O)OC(C)C)N[P@](=O)(OC1=CC=CC=C1)OC2=C(C(=C(C(=C2F)F)F)F)F,1334513-02-8,-6.13524936,CC(C)OC(=O)C(C)NP(=O)(Oc1ccccc1)Oc1c(F)c(F)c(F)c(F)c1F
2766,B-7532,3-[2-[4-[C-(2.4-difluorophenyl)-N-hydroxycarbonimidoyl]piperidin-1-yl]ethyl]-2-methyl-6.7.8.9-tetrahydropyrido[2.1-b]pyrimidin-4-one,BRCINVRBDDVLDW-QYQHSDTDSA-N,CC1=C(C(=O)N2CCCCC2=N1)CCN3CCC(CC3)/C(=N/O)/C4=C(C=C(C=C4)F)F,132961-05-8,-3.551184355,Cc1nc2n(c(=O)c1CCN1CCC(C(=NO)c3ccc(F)cc3F)CC1)CCCC2
2767,B-7533,2-[2-[2-[2-(2-methylprop-2-enoyloxy)ethoxy]ethoxy]ethoxy]ethyl 2-methylprop-2-enoate,LTHJXDSHSVNJKG-UHFFFAOYSA-N,CC(=C)C(=O)OCCOCCOCCOCCOC(=O)C(=C)C,000109-17-1,-1.418639523,C=C(C)C(=O)OCCOCCOCCOCCOC(=O)C(=C)C
2768,B-7534,2-(2-amino-1.3-thiazol-4-yl)acetic acid,DYCLHZPOADTVKK-UHFFFAOYSA-N,C1=C(N=C(S1)N)CC(=O)O,029676-71-9,-1.981652801,Nc1nc(CC(=O)O)cs1
2769,B-7535,N&apos-(3-methylbenzoyl)-N-phenylcarbamimidothioic acid,VRLICESMUXZLLY-UHFFFAOYSA-N,CC1=CC(=CC=C1)C(=O)N=C(NC2=CC=CC=C2)S,056836-93-2,-1.913396704,Cc1cccc(C(=O)N=C(S)Nc2ccccc2)c1
2770,B-7536,butyl N-[4-[[4-(butoxycarbonylamino)cyclohexyl]methyl]cyclohexyl]carbamate,XPMSIFQMNOZZLL-UHFFFAOYSA-N,CCCCOC(=O)NC1CCC(CC1)CC2CCC(CC2)NC(=O)OCCCC,099305-42-7,-6.721877045,CCCCOC(=O)NC1CCC(CC2CCC(NC(=O)OCCCC)CC2)CC1
2771,B-7537,(2E)-2-(3.5-dichloro-6-oxo-1-cyclohexa-2.4-dienylidene)-1H-quinazolin-4-one,DGEQNEGEPCXBDY-UKTHLTGXSA-N,C1=CC=C2C(=C1)C(=O)N/C(=C/3\C=C(C=C(C3=O)Cl)Cl)/N2,001033-16-5,-7.055966111,O=C1C(Cl)=CC(Cl)=CC1=C1NC(=O)c2ccccc2N1
2772,B-7538,5-methoxy-2-(4-methoxyphenyl)chromen-4-one,LUCPCQIWHDVLMX-UHFFFAOYSA-N,COC1=CC=C(C=C1)C2=CC(=O)C3=C(O2)C=CC=C3OC,067674-28-6,-3.6872755,COc1ccc(-c2cc(=O)c3c(OC)cccc3o2)cc1
2773,B-7539,sulfo dodecanoate,LVLJBRFCYXMKCE-UHFFFAOYSA-N,CCCCCCCCCCCC(=O)OS(=O)(=O)O,068891-38-3,-0.000586832,CCCCCCCCCCCC(=O)OS(=O)(=O)O
2774,B-7540,(17-acetyl-10.13-dimethyl-3-oxo-2.6.7.8.9.11.12.14.15.16-decahydro-1H-cyclopenta[a]phenanthren-17-yl) acetate,VTHUYJIXSMGYOQ-UHFFFAOYSA-N,CC(=O)C1(CCC2C1(CCC3C2CCC4=CC(=O)CCC34C)C)OC(=O)C,000302-23-8,-5.566808867,CC(=O)OC1(C(C)=O)CCC2C3CCC4=CC(=O)CCC4(C)C3CCC21C
2775,B-7541,2.3-dihydroxypropyl dodecanoate,ARIWANIATODDMH-UHFFFAOYSA-N,CCCCCCCCCCCC(=O)OCC(CO)O,000142-18-7,-4.660232224,CCCCCCCCCCCC(=O)OCC(O)CO
2776,B-7542,(8R.9S.10R.13S.14S)-15-hydroxy-10.13-dimethyl-2.6.7.8.9.11.12.14.15.16-decahydro-1H-cyclopenta[a]phenanthrene-3.17-dione,MYKMKUGZFQKMOZ-HYNIEHHYSA-N,C[C@]12CCC(=O)C=C1CC[C@@H]3[C@@H]2CC[C@]4([C@H]3C(CC4=O)O)C,058398-71-3,-2.213099623,CC12CCC(=O)C=C1CCC1C2CCC2(C)C(=O)CC(O)C12
2777,B-7543,[(3S.3aS.6R.6aS)-6-benzoyloxy-2.3.3a.5.6.6a-hexahydrofuro[3.2-b]furan-3-yl] benzoate,FQTGYQKXWLOIEK-MHORFTMASA-N,C1[C@H]([C@H]2[C@@H](O1)[C@H](CO2)OC(=O)C3=CC=CC=C3)OC(=O)C4=CC=CC=C4,185756-31-4,-4.102284946,O=C(OC1COC2C(OC(=O)c3ccccc3)COC12)c1ccccc1
2778,B-7544,3-amino-4-methoxy-N-phenylbenzamide,LHMQDVIHBXWNII-UHFFFAOYSA-N,COC1=C(C=C(C=C1)C(=O)NC2=CC=CC=C2)N,000120-35-4,-3.865797889,COc1ccc(C(=O)Nc2ccccc2)cc1N
2779,B-7545,7.18-dimethyl-7.18-diazaheptacyclo[14.6.2.22.5.03.12.04.9.013.23.020.24]hexacosa-1(23).2.4.9.11.13.15.20(24).21.25-decaene-6.8.17.19-tetrone,PJQYNUFEEZFYIS-UHFFFAOYSA-N,CN1C(=O)C2=C3C(=CC=C4C3=C(C=C2)C5=C6C4=CC=C7C6=C(C=C5)C(=O)N(C7=O)C)C1=O,005521-31-3,-7.881236875,CN1C(=O)c2ccc3c4ccc5c6c(ccc(c7ccc(c2c37)C1=O)c64)C(=O)N(C)C5=O
2780,B-7546,(4Z)-4-[(2-methyl-5-nitrophenyl)hydrazinylidene]-3-oxo-N-phenylnaphthalene-2-carboxamide,HVBDWKMAUMVFIY-QYQHSDTDSA-N,CC1=C(C=C(C=C1)[N+](=O)[O-])N/N=C\2/C3=CC=CC=C3C=C(C2=O)C(=O)NC4=CC=CC=C4,006448-95-9,-7.557966354,Cc1ccc([N+](=O)[O-])cc1NN=C1C(=O)C(C(=O)Nc2ccccc2)=Cc2ccccc21
2781,B-7547,2-[4-[(2-butyl-4-oxo-1.3-diazaspiro[4.4]non-1-en-3-yl)methyl]phenyl]benzonitrile,KWEQEHOPDHARIA-UHFFFAOYSA-N,CCCCC1=NC2(CCCC2)C(=O)N1CC3=CC=C(C=C3)C4=CC=CC=C4C#N,138401-24-8,-5.47208103,CCCCC1=NC2(CCCC2)C(=O)N1Cc1ccc(-c2ccccc2C#N)cc1
2782,B-7548,bis(1.2.2.6.6-pentamethylpiperidin-4-yl) 2-butyl-2-[(3.5-ditert-butyl-4-hydroxyphenyl)methyl]propanedioate,FLPKSBDJMLUTEX-UHFFFAOYSA-N,CCCCC(CC1=CC(=C(C(=C1)C(C)(C)C)O)C(C)(C)C)(C(=O)OC2CC(N(C(C2)(C)C)C)(C)C)C(=O)OC3CC(N(C(C3)(C)C)C)(C)C,063843-89-0,-5.835716692,CCCCC(Cc1cc(C(C)(C)C)c(O)c(C(C)(C)C)c1)(C(=O)OC1CC(C)(C)N(C)C(C)(C)C1)C(=O)OC1CC(C)(C)N(C)C(C)(C)C1
2783,B-7549,Octylphosphonic acid,NJGCRMAPOWGWMW-UHFFFAOYSA-N,CCCCCCCCP(=O)(O)O,004724-48-5,-3.014807539,CCCCCCCCP(=O)(O)O
2784,B-7550,6.13-dichloro-5.12-dihydroquinolino[2.3-b]acridine-7.14-dione,UFLLEPHODSEMJD-UHFFFAOYSA-N,C1=CC=C2C(=C1)C(=O)C3=C(N2)C(=C4C(=C3Cl)NC5=CC=CC=C5C4=O)Cl,038720-66-0,-7.066624735,O=c1c2ccccc2[nH]c2c(Cl)c3c(=O)c4ccccc4[nH]c3c(Cl)c12
2785,B-7551,1-[(2-chloro-4-nitrophenyl)diazenyl]naphthalen-2-ol,XLTMWFMRJZDFFD-UHFFFAOYSA-N,C1=CC=C2C(=C1)C=CC(=C2N=NC3=C(C=C(C=C3)[N+](=O)[O-])Cl)O,002814-77-9,-7.996997355,O=[N+]([O-])c1ccc(N=Nc2c(O)ccc3ccccc23)c(Cl)c1
2786,B-7552,3-hydroxy-N-(4-methoxyphenyl)naphthalene-2-carboxamide,UIXFPIHXQQZAGX-UHFFFAOYSA-N,COC1=CC=C(C=C1)NC(=O)C2=CC3=CC=CC=C3C=C2O,000092-79-5,-5.263223767,COc1ccc(NC(=O)c2cc3ccccc3cc2O)cc1
2787,B-7553,N-[2.4-dichloro-5-[[(Z)-(3-methoxy-6-oxocyclohexa-2.4-dien-1-ylidene)methyl]amino]phenyl]acetamide,ZVTWUFPKPMZGAK-NTMALXAHSA-N,CC(=O)NC1=C(C=C(C(=C1)N/C=C\2/C=C(C=CC2=O)OC)Cl)Cl,005285-60-9,-5.246995864,COC1=CC(=CNc2cc(NC(C)=O)c(Cl)cc2Cl)C(=O)C=C1
2788,B-7554,1-(4-methoxyphenyl)-4-(4-nitrophenyl)piperazine,AVCKOFMRPAJEPN-UHFFFAOYSA-N,COC1=CC=C(C=C1)N2CCN(CC2)C3=CC=C(C=C3)[N+](=O)[O-],074852-61-2,-6.929010817,COc1ccc(N2CCN(c3ccc([N+](=O)[O-])cc3)CC2)cc1
2789,B-7555,(7S.8R.9S.10R.13S.14S.17R)-10.13-dimethyl-7-propan-2-ylspiro[2.6.7.8.9.11.12.14.15.16-decahydro-1H-cyclopenta[a]phenanthrene-17.5'-oxolane]-2'.3-dione,GIMMPTDKHYFNQT-BTRFTSHOSA-N,CC(C)[C@@H]1CC2=CC(=O)CC[C@@]2([C@@H]3[C@@H]1[C@@H]4CC[C@]5([C@]4(CC3)C)CCC(=O)O5)C,080858-47-5,-2.692755453,CC(C)C1CC2=CC(=O)CCC2(C)C2CCC3(C)C(CCC34CCC(=O)O4)C12
2790,B-7556,(2Z)-2-benzylidene-4-methyl-3-oxo-N-phenylpentanamide,SMUFHBOCNIUNPT-LGMDPLHJSA-N,CC(C)C(=O)/C(=C/C1=CC=CC=C1)/C(=O)NC2=CC=CC=C2,125971-57-5,-4.450374368,CC(C)C(=O)C(=Cc1ccccc1)C(=O)Nc1ccccc1
2791,B-7557,methyl 2-amino-4-[(2.5-dichlorobenzoyl)amino]benzoate,PDWBHZYCNIOXCB-UHFFFAOYSA-N,COC(=O)C1=C(C=C(C=C1)NC(=O)C2=C(C=CC(=C2)Cl)Cl)N,059673-82-4,-5.790064217,COC(=O)c1ccc(NC(=O)c2cc(Cl)ccc2Cl)cc1N
2792,B-7558,2-(octanoylamino)acetic acid,SAVLIIGUQOSOEP-UHFFFAOYSA-N,CCCCCCCC(=O)NCC(=O)O,014246-53-8,-2.111535435,CCCCCCCC(=O)NCC(=O)O
2793,B-7559,2-[(E)-2-[4-[(E)-2-(2-cyanophenyl)ethenyl]phenyl]ethenyl]benzonitrile,RBABXJPJIHMBBP-WXUKJITCSA-N,C1=CC=C(C(=C1)/C=C/C2=CC=C(C=C2)/C=C/C3=CC=CC=C3C#N)C#N,013001-38-2,-7.240627648,N#Cc1ccccc1C=Cc1ccc(C=Cc2ccccc2C#N)cc1
2794,B-7560,2-morpholin-4-ylethanesulfonic acid,SXGZJKUKBWWHRA-UHFFFAOYSA-N,C1COCCN1CCS(=O)(=O)O,004432-31-9,-0.022912245,O=S(=O)(O)CCN1CCOCC1
2795,B-7561,4-methylsulfonyl-2-(trifluoromethyl)benzaldehyde,KKZHDYBLTHETMS-UHFFFAOYSA-N,CS(=O)(=O)C1=CC(=C(C=C1)C=O)C(F)(F)F,1215310-75-0,-2.465244599,CS(=O)(=O)c1ccc(C=O)c(C(F)(F)F)c1
2796,B-7562,5-hydroxyimino-1.3-diazinane-2.4.6-trione,JMUJZTASUDOAGC-UHFFFAOYSA-N,C1(=NO)C(=O)NC(=O)NC1=O,000087-39-8,-1.293045835,O=C1NC(=O)C(=NO)C(=O)N1
2797,B-7563,5-amino-6-methyl-1.3-dihydrobenzimidazol-2-one,ZCXIPVIGYBHUTQ-UHFFFAOYSA-N,CC1=CC2=C(C=C1N)NC(=O)N2,067014-36-2,-1.721301509,Cc1cc2[nH]c(=O)[nH]c2cc1N
2798,B-7564,N.N-bis(2-chloroethyl)-4-[2-(phenylmethyl)-1.3-thiazol-4-yl]aniline,XYHXADWPEMKZKC-UHFFFAOYSA-N,C1=CC=C(C=C1)CC2=NC(=CS2)C3=CC=C(C=C3)N(CCCl)CCCl,033885-51-7,-3.807243715,ClCCN(CCCl)c1ccc(-c2csc(Cc3ccccc3)n2)cc1
2799,B-7565,methyl 4-[(2.5-dichlorophenyl)carbamoyl]-2-nitrobenzoate,BVBSCSYCFCDVEU-UHFFFAOYSA-N,COC(=O)C1=C(C=C(C=C1)C(=O)NC2=C(C=CC(=C2)Cl)Cl)[N+](=O)[O-],083929-47-9,-5.965155117,COC(=O)c1ccc(C(=O)Nc2cc(Cl)ccc2Cl)cc1[N+](=O)[O-]
2800,B-7566,3-(4-chlorophenyl)-1-(3.4-dichlorophenyl)urea,ICUTUKXCWQYESQ-UHFFFAOYSA-N,C1=CC(=CC=C1NC(=O)NC2=CC(=C(C=C2)Cl)Cl)Cl,000101-20-2,-5.704002606,O=C(Nc1ccc(Cl)cc1)Nc1ccc(Cl)c(Cl)c1
2801,B-7567,1.4-DIOXACYCLOHEXADECANE-5.16-DIONE,GJJSUPSPZIZYPM-UHFFFAOYSA-N,C1CCCCCC(=O)OCCOC(=O)CCCC1,054982-83-1,-3.53375715,O=C1CCCCCCCCCCC(=O)OCCO1
2802,B-7568,5-methoxy-1.3-dihydrobenzimidazole-2-thione,KOFBRZWVWJCLGM-UHFFFAOYSA-N,COC1=CC2=C(C=C1)NC(=S)N2,037052-78-1,-2.750662646,COc1ccc2[nH]c(=S)[nH]c2c1
2803,B-7569,[2-[di(propan-2-yl)carbamoyl]phenyl]boronic acid,QLZAMQCEYYXNTG-UHFFFAOYSA-N,B(C1=CC=CC=C1C(=O)N(C(C)C)C(C)C)(O)O,001038-28-4,-4.618250197,CC(C)N(C(=O)c1ccccc1B(O)O)C(C)C
2804,B-7570,4-hydroxy-2-(1-hydroxybutyl)-2.5-dimethylfuran-3-one,NOYLNCIBDODDPI-UHFFFAOYSA-N,CCCC(C1(C(=O)C(=C(O1)C)O)C)O,053220-22-7,-3.910602716,CCCC(O)C1(C)OC(C)=C(O)C1=O
2805,B-7571,N-(3-methyl-2.6-dihydro-1.3.5-oxadiazin-4-yl)nitramide,GAYLOVDFGKQKCJ-UHFFFAOYSA-N,CN1COCN=C1N[N+](=O)[O-],153719-38-1,-1.002290158,CN1COCN=C1N[N+](=O)[O-]
2806,B-7572,[4-(4-phenoxybenzoyl)phenyl]-(4-phenoxyphenyl)methanone,NWJVKSITTJQWCG-UHFFFAOYSA-N,C1=CC=C(C=C1)OC2=CC=C(C=C2)C(=O)C3=CC=C(C=C3)C(=O)C4=CC=C(C=C4)OC5=CC=CC=C5,054299-17-1,-5.922342903,O=C(c1ccc(Oc2ccccc2)cc1)c1ccc(C(=O)c2ccc(Oc3ccccc3)cc2)cc1
2807,B-7574,2-(4-chloro-2-nitrophenyl)diazenyl-N-(2-chlorophenyl)-3-oxobutanamide,QTSNFLIDNYOATQ-UHFFFAOYSA-N,CC(=O)C(C(=O)NC1=CC=CC=C1Cl)N=NC2=C(C=C(C=C2)Cl)[N+](=O)[O-],006486-23-3,-7.721756991,CC(=O)C(N=Nc1ccc(Cl)cc1[N+](=O)[O-])C(=O)Nc1ccccc1Cl
2808,B-7575,(8R.9S.10R.13S.14S.17R)-17-acetyl-17-hydroxy-10.13-dimethyl-9.11.12.14.15.16-hexahydro-8H-cyclopenta[a]phenanthren-3-one,PJERKBARHKFJRD-CEGNMAFCSA-N,CC(=O)[C@]1(CC[C@@H]2[C@@]1(CC[C@H]3[C@H]2C=CC4=CC(=O)C=C[C@]34C)C)O,066212-25-7,-4.212766189,CC(=O)C1(O)CCC2C3C=CC4=CC(=O)C=CC4(C)C3CCC21C
2809,B-7576,[(2S.4R)-2-(2.4-dichlorophenyl)-2-(1.2.4-triazol-1-ylmethyl)-1.3-dioxolan-4-yl]methanol,NKUOWQPBYUKRIM-ZWNOBZJWSA-N,C1[C@H](O[C@](O1)(CN2C=NC=N2)C3=C(C=C(C=C3)Cl)Cl)CO,067914-85-6,-2.905953753,OCC1COC(Cn2cncn2)(c2ccc(Cl)cc2Cl)O1
2810,B-7577,2-[bis(cyanomethyl)amino]propanenitrile,FIIUFZGDWANGEJ-UHFFFAOYSA-N,CC(C#N)N(CC#N)CC#N,185257-07-2,-1.463190105,CC(C#N)N(CC#N)CC#N
2811,B-7578,3-[[5-(2-cyanoethylamino)-1.3.3-trimethylcyclohexyl]methylamino]propanenitrile,HEUAYLFWKXGPEA-UHFFFAOYSA-N,CC1(CC(CC(C1)(C)CNCCC#N)NCCC#N)C,093940-97-7,-0.936419484,CC1(C)CC(NCCC#N)CC(C)(CNCCC#N)C1
2812,B-7579,3.7.15-trihydroxy-10.13-dimethyl-1.2.3.4.7.8.9.11.12.14.15.16-dodecahydrocyclopenta[a]phenanthren-17-one,FTEHGIIZAGEILF-UHFFFAOYSA-N,CC12CCC(CC1=CC(C3C2CCC4(C3C(CC4=O)O)C)O)O,002963-69-1,-3.032973739,CC12CCC(O)CC1=CC(O)C1C2CCC2(C)C(=O)CC(O)C12
2813,B-7580,5-nitro-1.3-dihydrobenzimidazol-2-one,DLJZIPVEVJOKHB-UHFFFAOYSA-N,C1=CC2=C(C=C1[N+](=O)[O-])NC(=O)N2,000093-84-5,-3.274087063,O=c1[nH]c2ccc([N+](=O)[O-])cc2[nH]1
2814,B-7581,N-(2-chloroethyl)-4-(2.6-dichloro-4-nitrophenyl)diazenyl-N-ethyl-3-methylaniline,UGDJBKWHSWJSMB-UHFFFAOYSA-N,CCN(CCCl)C1=CC(=C(C=C1)N=NC2=C(C=C(C=C2Cl)[N+](=O)[O-])Cl)C,063741-10-6,-7.74896798,CCN(CCCl)c1ccc(N=Nc2c(Cl)cc([N+](=O)[O-])cc2Cl)c(C)c1
2815,B-7582,(17-acetyl-10.13-dimethyl-6-methylidene-3-oxo-1.2.7.8.9.11.12.14.15.16-decahydrocyclopenta[a]phenanthren-17-yl) acetate,YCDZXIYKJHQMIG-UHFFFAOYSA-N,CC(=O)C1(CCC2C1(CCC3C2CC(=C)C4=CC(=O)CCC34C)C)OC(=O)C,032634-95-0,-6.107791354,C=C1CC2C(CCC3(C)C2CCC3(OC(C)=O)C(C)=O)C2(C)CCC(=O)C=C12
2816,B-7583,2-(2-prop-2-enoxycarbonyloxyethoxy)ethyl prop-2-enyl carbonate,JHQVCQDWGSXTFE-UHFFFAOYSA-N,C=CCOC(=O)OCCOCCOC(=O)OCC=C,000142-22-3,-2.065266304,C=CCOC(=O)OCCOCCOC(=O)OCC=C
2817,B-7584,3-methoxycarbonyl-5-nitrobenzoic acid,ZCRNIIJXDRYWDU-UHFFFAOYSA-N,COC(=O)C1=CC(=CC(=C1)C(=O)O)[N+](=O)[O-],001955-46-0,-2.073732624,COC(=O)c1cc(C(=O)O)cc([N+](=O)[O-])c1
2818,B-7585,(3R.4S.5R)-2-(2-octyldodecoxy)oxane-3.4.5-triol,UZLPXVWSLFHDJE-NZZVNMMHSA-N,CCCCCCCCCCC(CCCCCCCC)COC1[C@@H]([C@H]([C@@H](CO1)O)O)O,423772-95-6,-5.272413759,CCCCCCCCCCC(CCCCCCCC)COC1OCC(O)C(O)C1O
2819,B-7586,5-amino-1.3-dihydrobenzimidazol-2-one,BCXSVFBDMPSKPT-UHFFFAOYSA-N,C1=CC2=C(C=C1N)NC(=O)N2,000095-23-8,-2.334779408,Nc1ccc2[nH]c(=O)[nH]c2c1
2820,B-7587,N'-(2-ethoxyphenyl)-N-(2-ethylphenyl)oxamide,YIMHRDBSVCPJOV-UHFFFAOYSA-N,CCC1=CC=CC=C1NC(=O)C(=O)NC2=CC=CC=C2OCC,023949-66-8,-6.017544726,CCOc1ccccc1NC(=O)C(=O)Nc1ccccc1CC
2821,B-7588,2-[(E)-octadec-2-enyl]butanedioic acid,OVQJAEGJPUEXQD-WUKNDPDISA-N,CCCCCCCCCCCCCCC/C=C/CC(CC(=O)O)C(=O)O,068015-93-0,-6.964443023,CCCCCCCCCCCCCCCC=CCC(CC(=O)O)C(=O)O
2822,B-7589,N-[4-[(4-hydroxy-9.10-dioxoanthracen-1-yl)amino]phenyl]acetamide,DAPGHBPTUCXSRG-UHFFFAOYSA-N,CC(=O)NC1=CC=C(C=C1)NC2=C3C(=C(C=C2)O)C(=O)C4=CC=CC=C4C3=O,067905-17-3,-6.248766353,CC(=O)Nc1ccc(Nc2ccc(O)c3c2C(=O)c2ccccc2C3=O)cc1
2823,B-7590,1.1.2.2.3.3.4.4.4-nonafluoro-N.N-bis(2-hydroxyethyl)butane-1-sulfonamide,XYQNMGJZDSSVRP-UHFFFAOYSA-N,C(CO)N(CCO)S(=O)(=O)C(C(C(C(F)(F)F)(F)F)(F)F)(F)F,034455-00-0,-2.862859783,O=S(=O)(N(CCO)CCO)C(F)(F)C(F)(F)C(F)(F)C(F)(F)F
2824,B-7591,1-hydroxy-4-(phenylamino)anthracene-9.10-dione,ZNQIAQXHADXXQI-UHFFFAOYSA-N,C1=CC=C(C=C1)NC2=C3C(=C(C=C2)O)C(=O)C4=CC=CC=C4C3=O,012237-62-6,-6.044985126,O=C1c2ccccc2C(=O)c2c(Nc3ccccc3)ccc(O)c21
2825,B-7592,2-[4-(1.3-dioxoisoindol-2-yl)phenyl]butanoic acid,ZQKLRJAOOUMVSA-UHFFFAOYSA-N,CCC(C1=CC=C(C=C1)N2C(=O)C3=CC=CC=C3C2=O)C(=O)O,094232-67-4,-4.602791824,CCC(C(=O)O)c1ccc(N2C(=O)c3ccccc3C2=O)cc1
2826,B-7593,Dimethyl 2.5-dioxocyclohexane-1.4-dicarboxylate,MHKKFFHWMKEBDW-UHFFFAOYSA-N,COC(=O)C1CC(=O)C(CC1=O)C(=O)OC,006289-46-9,-4.154197941,COC(=O)C1CC(=O)C(C(=O)OC)CC1=O
2827,B-7594,3-(2-hydroxyethyl)-1H-quinazoline-2.4-dione,DSUNWRHRAQZLNC-UHFFFAOYSA-N,C1=CC=C2C(=C1)C(=O)N(C(=O)N2)CCO,001207-75-6,-3.1128928,O=c1[nH]c2ccccc2c(=O)n1CCO
2828,B-7595,4-Methoxy-3-nitro-N-phenylbenzamide,YKOCPBMVMBUTAX-UHFFFAOYSA-N,COC1=C(C=C(C=C1)C(=O)NC2=CC=CC=C2)[N+](=O)[O-],000097-32-5,-4.98782549,COc1ccc(C(=O)Nc2ccccc2)cc1[N+](=O)[O-]
2829,B-7596,2-(4-chloro-3-methylphenyl)-5.6.7.8-tetrahydro-[1.2.4]triazolo[1.2-a]pyridazine-1.3-dithione,TWIJITSKSGDZMX-UHFFFAOYSA-N,CC1=C(C=CC(=C1)N2C(=S)N3CCCCN3C2=S)Cl,006528-34-3,-8.215187552,Cc1cc(-n2c(=S)n3n(c2=S)CCCC3)ccc1Cl
2830,B-7597,(5Z)-1-ethyl-4-methyl-5-[(2-nitrophenyl)hydrazinylidene]-2.6-dioxopyridine-3-carbonitrile,FTMJABNEYSXUEV-AQTBWJFISA-N,CCN1C(=O)C(=C(/C(=N/NC2=CC=CC=C2[N+](=O)[O-])/C1=O)C)C#N,049744-25-4,-6.815962732,CCN1C(=O)C(=NNc2ccccc2[N+](=O)[O-])C(C)=C(C#N)C1=O
2831,B-7598,3'.6'-bis(diethylamino)spiro[2-benzofuran-3.9'-xanthene]-1-one,DZNJMLVCIZGWSC-UHFFFAOYSA-N,CCN(CC)C1=CC2=C(C=C1)C3(C4=C(O2)C=C(C=C4)N(CC)CC)C5=CC=CC=C5C(=O)O3,000509-34-2,-1.962063055,CCN(CC)c1ccc2c(c1)Oc1cc(N(CC)CC)ccc1C21OC(=O)c2ccccc21
2832,B-7599,3-[(4-hydroxy-3-methoxyphenyl)methyl]pentane-2.4-dione,IFGDRUTWCITGHG-UHFFFAOYSA-N,CC(=O)C(CC1=CC(=C(C=C1)O)OC)C(=O)C,030881-23-3,-1.786365949,COc1cc(CC(C(C)=O)C(C)=O)ccc1O
2833,B-7601,(8S.9S.10R.11R.13S.14S)-11-hydroxy-13-methyl-1.2.6.7.8.9.10.11.12.14.15.16-dodecahydrocyclopenta[a]phenanthrene-3.17-dione,VDCOSJPGDDQNJH-JVSYPLCOSA-N,C[C@]12C[C@H]([C@H]3[C@H]([C@@H]1CCC2=O)CCC4=CC(=O)CC[C@H]34)O,006615-00-5,-2.56124869,CC12CC(O)C3C4CCC(=O)C=C4CCC3C1CCC2=O
2834,B-7602,9-(4-ethylphenyl)-3-[(4-fluorophenyl)methyl]-1.7-dimethyl-7.8-dihydro-6H-purino[7.8-a]pyrimidine-2.4-dione,WOEMAIRTBAZULT-UHFFFAOYSA-N,CCC1=CC=C(C=C1)N2CC(CN3C2=NC4=C3C(=O)N(C(=O)N4C)CC5=CC=C(C=C5)F)C,005280-66-0,-4.027554522,CCc1ccc(N2CC(C)Cn3c2nc2c3c(=O)n(Cc3ccc(F)cc3)c(=O)n2C)cc1
2835,B-7603,di(phenyl)phosphoryl-(2.4.6-trimethylphenyl)methanone,VFHVQBAGLAREND-UHFFFAOYSA-N,CC1=CC(=C(C(=C1)C)C(=O)P(=O)(C2=CC=CC=C2)C3=CC=CC=C3)C,075980-60-8,-5.010574921,Cc1cc(C)c(C(=O)P(=O)(c2ccccc2)c2ccccc2)c(C)c1