,C_ID,Name,InChIKey,SMILES,CAS,LogS,smiles_canon
2305,B-7054,(2.2-dimethyl-1.3-dioxolan-4-yl)methyl 2-methylprop-2-enoate,JPFPDGRVRGETED-UHFFFAOYSA-N,CC(=C)C(=O)OCC1COC(O1)(C)C,007098-80-8,-1.252319801,C=C(C)C(=O)OCC1COC(C)(C)O1
2306,B-7055,1H-benzimidazole-2-thiol,YHMYGUUIMTVXNW-UHFFFAOYSA-N,C1=CC=C2C(=C1)NC(=N2)S,003030-80-6,-3.523451058,Sc1nc2ccccc2[nH]1
2307,B-7056,3a.4.5.6.7.7a-hexahydro-2-benzofuran-1.3-dione,MUTGBJKUEZFXGO-UHFFFAOYSA-N,C1CCC2C(C1)C(=O)OC2=O,000085-42-7,-1.56473706,O=C1OC(=O)C2CCCCC12
2308,B-7058,(2-methoxy-4-methylphenyl) methyl carbonate,OLPGHBILOFNQNR-UHFFFAOYSA-N,CC1=CC(=C(C=C1)OC(=O)OC)OC,132638-45-0,-2.717516471,COC(=O)Oc1ccc(C)cc1OC
2309,B-7059,3-triethoxysilylpropyl 2-methylprop-2-enoate,URDOJQUSEUXVRP-UHFFFAOYSA-N,CCO[Si](CCCOC(=O)C(=C)C)(OCC)OCC,021142-29-0,0.536956432,C=C(C)C(=O)OCCC[Si](OCC)(OCC)OCC
2310,B-7060,(2-methoxy-4-prop-2-enylphenyl) acetate,SCCDQYPEOIRVGX-UHFFFAOYSA-N,CC(=O)OC1=C(C=C(C=C1)CC=C)OC,000093-28-7,-2.701590728,C=CCc1ccc(OC(C)=O)c(OC)c1
2311,B-7061,methyl 3-methoxy-3-(4-methoxyphenyl)propanoate,CDCQKYGCIPUMCF-UHFFFAOYSA-N,COC1=CC=C(C=C1)C(CC(=O)OC)OC,069098-08-4,-2.343423119,COC(=O)CC(OC)c1ccc(OC)cc1
2312,B-7063,2-acetyloxybut-3-enyl acetate,MWWXARALRVYLAE-UHFFFAOYSA-N,CC(=O)OCC(C=C)OC(=O)C,018085-02-4,-0.817682421,C=CC(COC(C)=O)OC(C)=O
2313,B-7064,1-hydroxybutyl 2-methylprop-2-enoate,QNMHRRCVEGQTPS-UHFFFAOYSA-N,CCCC(O)OC(=O)C(=C)C,029721-79-7,-0.601502508,C=C(C)C(=O)OC(O)CCC
2314,B-7065,N-(2-Methoxy-5-methylphenyl)acetamide,POLMNXCVMYMLSF-UHFFFAOYSA-N,CC1=CC(=C(C=C1)OC)NC(=O)C,006962-44-3,-1.931162816,COc1ccc(C)cc1NC(C)=O
2315,B-7066,(3-acetyloxy-2.2-dimethylpropyl) acetate,ZFFGZCTVZNNVLP-UHFFFAOYSA-N,CC(=O)OCC(C)(C)COC(=O)C,013431-57-7,-1.119336654,CC(=O)OCC(C)(C)COC(C)=O
2316,B-7067,2-nitro-4-(trifluoromethyl)benzonitrile,BQCWLXXZTCLGSZ-UHFFFAOYSA-N,C1=CC(=C(C=C1C(F)(F)F)[N+](=O)[O-])C#N,000778-94-9,-2.470777582,N#Cc1ccc(C(F)(F)F)cc1[N+](=O)[O-]
2317,B-7068,[4-(4-methylphenyl)sulfanylphenyl]-phenylmethanone,DBHQYYNDKZDVTN-UHFFFAOYSA-N,CC1=CC=C(C=C1)SC2=CC=C(C=C2)C(=O)C3=CC=CC=C3,083846-85-9,-7.615396561,Cc1ccc(Sc2ccc(C(=O)c3ccccc3)cc2)cc1
2318,B-7069,benzyl (E)-3-phenylprop-2-enoate,NGHOLYJTSCBCGC-VAWYXSNFSA-N,C1=CC=C(C=C1)COC(=O)/C=C/C2=CC=CC=C2,000103-41-3,-4.820794933,O=C(C=Cc1ccccc1)OCc1ccccc1
2319,B-7070,ethyl 2-(2-methyl-1.3-dioxolan-2-yl)acetate,XWEOGMYZFCHQNT-UHFFFAOYSA-N,CCOC(=O)CC1(OCCO1)C,006413-10-1,-0.144824092,CCOC(=O)CC1(C)OCCO1
2320,B-7071,2-ethylpentyl 3-(3.5-ditert-butyl-4-hydroxyphenyl)propanoate,PJZFNEYJOZUEGS-UHFFFAOYSA-N,CCCC(CC)COC(=O)CCC1=CC(=C(C(=C1)C(C)(C)C)O)C(C)(C)C,125643-61-0,-8.876885171,CCCC(CC)COC(=O)CCc1cc(C(C)(C)C)c(O)c(C(C)(C)C)c1
2321,B-7073,4-chloro-N-methylbenzamide,DYDRCANRNSAYJA-UHFFFAOYSA-N,CNC(=O)C1=CC=C(C=C1)Cl,070495-37-3,-4.82265665,CNC(=O)c1ccc(Cl)cc1
2322,B-7074,dipropan-2-yl butanedioate,YPLYFEUBZLLLIY-UHFFFAOYSA-N,CC(C)OC(=O)CCC(=O)OC(C)C,000924-88-9,-1.729316417,CC(C)OC(=O)CCC(=O)OC(C)C
2323,B-7075,methyl 2-(hydroxymethoxy)acetate,RNVVYVPDHMKDTL-UHFFFAOYSA-N,COC(=O)COCO,019757-97-2,0.920439636,COC(=O)COCO
2324,B-7076,4-(2-methylprop-2-enoyloxy)butyl 2-methylprop-2-enoate,XOJWAAUYNWGQAU-UHFFFAOYSA-N,CC(=C)C(=O)OCCCCOC(=O)C(=C)C,002082-81-7,-2.969024158,C=C(C)C(=O)OCCCCOC(=O)C(=C)C
2325,B-7077,[(1R.2S.5R)-5-methyl-2-propan-2-ylcyclohexyl] 2-(ethylamino)-2-oxoacetate,VTSKTHILUKZQTB-GRYCIOLGSA-N,CCNC(=O)C(=O)O[C@@H]1C[C@@H](CC[C@H]1C(C)C)C,1122460-01-8,-3.169854409,CCNC(=O)C(=O)OC1CC(C)CCC1C(C)C
2326,B-7078,(E)-1-(4-chlorophenyl)-3-naphthalen-1-ylprop-2-en-1-one,XPHQJOOQZCMEMB-JLHYYAGUSA-N,C1=CC=C2C(=C1)C=CC=C2/C=C/C(=O)C3=CC=C(C=C3)Cl,056819-40-0,-1.498034872,O=C(C=Cc1cccc2ccccc12)c1ccc(Cl)cc1
2327,B-7079,(4-methylbenzoyl) 4-methylbenzenecarboperoxoate,AGKBXKFWMQLFGZ-UHFFFAOYSA-N,CC1=CC=C(C=C1)C(=O)OOC(=O)C2=CC=C(C=C2)C,000895-85-2,-6.798352203,Cc1ccc(C(=O)OOC(=O)c2ccc(C)cc2)cc1
2328,B-7080,Octadecane-1.12-diol,KHLCTMQBMINUNT-UHFFFAOYSA-N,CCCCCCC(CCCCCCCCCCCO)O,002726-73-0,-6.913052034,CCCCCCC(O)CCCCCCCCCCCO
2329,B-7081,1.4-Dithiane-2.5-diol,YUIOPHXTILULQC-UHFFFAOYSA-N,C1C(SCC(S1)O)O,040018-26-6,-1.468998293,OC1CSC(O)CS1
2330,B-7082,2-hydroxypropanenitrile,WOFDVDFSGLBFAC-UHFFFAOYSA-N,CC(C#N)O,000078-97-7,1.148252581,CC(O)C#N
2331,B-7083,N-(6-AMINOHEXYL)HEXANE-1.6-DIAMINE,MRNZSTMRDWRNNR-UHFFFAOYSA-N,C(CCCNCCCCCCN)CCN,000143-23-7,0.307273645,NCCCCCCNCCCCCCN
2332,B-7084,6-chloro-1.3-dihydroindol-2-one,CENVPIZOTHULGJ-UHFFFAOYSA-N,C1C2=C(C=C(C=C2)Cl)NC1=O,056341-37-8,-2.968987257,O=C1Cc2ccc(Cl)cc2N1
2333,B-7085,6-prop-2-enoyloxyhexyl prop-2-enoate,FIHBHSQYSYVZQE-UHFFFAOYSA-N,C=CC(=O)OCCCCCCOC(=O)C=C,013048-33-4,-2.819336312,C=CC(=O)OCCCCCCOC(=O)C=C
2334,B-7086,3-Hydroxy-4-methoxybenzaldehyde,JVTZFYYHCGSXJV-UHFFFAOYSA-N,COC1=C(C=C(C=C1)C=O)O,000621-59-0,-1.826244387,COc1ccc(C=O)cc1O
2335,B-7087,2-methylprop-2-enamide,FQPSGWSUVKBHSU-UHFFFAOYSA-N,CC(=C)C(=O)N,000079-39-0,0.375394252,C=C(C)C(N)=O
2336,B-7088,diundecyl benzene-1.2-dicarboxylate,QQVHEQUEHCEAKS-UHFFFAOYSA-N,CCCCCCCCCCCOC(=O)C1=CC=CC=C1C(=O)OCCCCCCCCCCC,003648-20-2,-4.608254046,CCCCCCCCCCCOC(=O)c1ccccc1C(=O)OCCCCCCCCCCC
2337,B-7089,Bis(2-ethylhexyl) cyclohexane-1.4-dicarboxylate,HOQGHOMLEVKTBY-UHFFFAOYSA-N,CCCCC(CC)COC(=O)C1CCC(CC1)C(=O)OCC(CC)CCCC,084731-70-4,-6.926264926,CCCCC(CC)COC(=O)C1CCC(C(=O)OCC(CC)CCCC)CC1
2338,B-7090,methyl 2-cyanoacetate,ANGDWNBGPBMQHW-UHFFFAOYSA-N,COC(=O)CC#N,000105-34-0,-0.263636069,COC(=O)CC#N
2339,B-7091,1-(3-methoxypropoxy)propan-1-ol,SHRGCOIDGUJGJI-UHFFFAOYSA-N,CCC(O)OCCCOC,034590-94-8,-2.170852892,CCC(O)OCCCOC
2340,B-7092,2-(2-ethenoxyethoxy)ethoxyethene,SAMJGBVVQUEMGC-UHFFFAOYSA-N,C=COCCOCCOC=C,000764-99-8,-1.053069659,C=COCCOCCOC=C
2341,B-7093,1.4-bis(butylamino)anthracene-9.10-dione,OCQDPIXQTSYZJL-UHFFFAOYSA-N,CCCCNC1=C2C(=C(C=C1)NCCCC)C(=O)C3=CC=CC=C3C2=O,017354-14-2,-7.931854104,CCCCNc1ccc(NCCCC)c2c1C(=O)c1ccccc1C2=O
2342,B-7094,2-Ethoxybenzoic acid,XDZMPRGFOOFSBL-UHFFFAOYSA-N,CCOC1=CC=CC=C1C(=O)O,000134-11-2,-1.326308159,CCOc1ccccc1C(=O)O
2343,B-7095,(Z)-but-2-ene-1.4-diol,ORTVZLZNOYNASJ-UPHRSURJSA-N,C(/C=C\CO)O,006117-80-2,0.846685164,OCC=CCO
2344,B-7096,dipropan-2-yl hexanedioate,ZDQWESQEGGJUCH-UHFFFAOYSA-N,CC(C)OC(=O)CCCCC(=O)OC(C)C,006938-94-9,-3.107027844,CC(C)OC(=O)CCCCC(=O)OC(C)C
2345,B-7097,3-methyl-1.3-thiazolidine-2-thione,RGTLAJIDOSPEDH-UHFFFAOYSA-N,CN1CCSC1=S,001908-87-8,-1.562296124,CN1CCSC1=S
2346,B-7098,6-(2-methylprop-2-enoyloxy)hexyl 2-methylprop-2-enoate,SAPGBCWOQLHKKZ-UHFFFAOYSA-N,CC(=C)C(=O)OCCCCCCOC(=O)C(=C)C,006606-59-3,-4.0436619,C=C(C)C(=O)OCCCCCCOC(=O)C(=C)C
2347,B-7099,Dimethyl naphthalene-2.6-dicarboxylate,GYUVMLBYMPKZAZ-UHFFFAOYSA-N,COC(=O)C1=CC2=C(C=C1)C=C(C=C2)C(=O)OC,000840-65-3,-6.211736912,COC(=O)c1ccc2cc(C(=O)OC)ccc2c1
2348,B-7100,2-[[4-(oxiran-2-ylmethoxymethyl)cyclohexyl]methoxymethyl]oxirane,VQMQXWYQIIUJIT-UHFFFAOYSA-N,C1CC(CCC1COCC2CO2)COCC3CO3,014228-73-0,-1.835795879,C1CC(COCC2CO2)CCC1COCC1CO1
2349,B-7101,2-methylbenzene-1.4-diol,CNHDIAIOKMXOLK-UHFFFAOYSA-N,CC1=C(C=CC(=C1)O)O,000095-71-6,-0.207417517,Cc1cc(O)ccc1O
2350,B-7102,1-(3-hydroxyphenyl)ethanone,LUJMEECXHPYQOF-UHFFFAOYSA-N,CC(=O)C1=CC(=CC=C1)O,000121-71-1,-1.533938203,CC(=O)c1cccc(O)c1
2351,B-7103,2-ethylhexyl 2-cyanoacetate,ZNYBQVBNSXLZNI-UHFFFAOYSA-N,CCCCC(CC)COC(=O)CC#N,013361-34-7,-3.286460873,CCCCC(CC)COC(=O)CC#N
2352,B-7105,3a.4.7.7a-tetrahydro-2-benzofuran-1.3-dione,KMOUUZVZFBCRAM-UHFFFAOYSA-N,C1C=CCC2C1C(=O)OC2=O,026266-63-7,-0.540796134,O=C1OC(=O)C2CC=CCC12
2353,B-7106,2-butyl-2-ethylpropane-1.3-diol,DSKYSDCYIODJPC-UHFFFAOYSA-N,CCCCC(CC)(CO)CO,000115-84-4,-1.260331084,CCCCC(CC)(CO)CO
2354,B-7107,bis(11-methyldodecyl) hexanedioate,WPUKZOKYKHYASK-UHFFFAOYSA-N,CC(C)CCCCCCCCCCOC(=O)CCCCC(=O)OCCCCCCCCCCC(C)C,026401-35-4,-8.863186346,CC(C)CCCCCCCCCCOC(=O)CCCCC(=O)OCCCCCCCCCCC(C)C
2355,B-7108,bis(2-ethylhexoxy)-sulfanyl-sulfanylidenephosphorane,DQNJHGSFNUDORY-UHFFFAOYSA-N,CCCCC(CC)COP(=S)(OCC(CC)CCCC)S,005810-88-8,-4.167654445,CCCCC(CC)COP(=S)(S)OCC(CC)CCCC
2356,B-7109,2-hydroperoxy-2-(2-hydroperoxybutan-2-ylperoxy)butane,WFUGQJXVXHBTEM-UHFFFAOYSA-N,CCC(C)(OO)OOC(C)(CC)OO,001338-23-4,-1.507774485,CCC(C)(OO)OOC(C)(CC)OO
2357,B-7110,2-[2-hydroxyethyl-[(E)-octadec-9-enyl]amino]ethanol,BITAPBDLHJQAID-MDZDMXLPSA-N,CCCCCCCC/C=C/CCCCCCCCN(CCO)CCO,025307-17-9,-4.780113405,CCCCCCCCC=CCCCCCCCCN(CCO)CCO
2358,B-7111,2-Phenyl-1H-imidazole,ZCUJYXPAKHMBAZ-UHFFFAOYSA-N,C1=CC=C(C=C1)C2=NC=CN2,000670-96-2,-1.889378823,c1ccc(-c2ncc[nH]2)cc1
2359,B-7112,2-(1-hydroxybutylidene)-5-(thian-3-yl)cyclohexane-1.3-dione,CSALAITYIGZHHH-UHFFFAOYSA-N,CCCC(=C1C(=O)CC(CC1=O)C2CCCSC2)O,094723-86-1,-4.501470072,CCCC(O)=C1C(=O)CC(C2CCCSC2)CC1=O
2360,B-7113,1-[2-chloro-4-(4-chlorophenoxy)phenyl]ethanone,BDTJIVUVQRVLLJ-UHFFFAOYSA-N,CC(=O)C1=C(C=C(C=C1)OC2=CC=C(C=C2)Cl)Cl,119851-28-4,-5.126699947,CC(=O)c1ccc(Oc2ccc(Cl)cc2)cc1Cl
2361,B-7114,N-[3-[[(Z)-octadec-9-enyl]amino]propyl]propane-1.3-diamine,ZXUXEWRICDHNKF-KTKRTIGZSA-N,CCCCCCCC/C=C\CCCCCCCCNCCCNCCCN,028872-01-7,-3.718384508,CCCCCCCCC=CCCCCCCCCNCCCNCCCN
2362,B-7115,methyl 2-[[3-(4-tert-butylphenyl)-2-methylpropylidene]amino]benzoate,RBAUBIIMPLZNGC-UHFFFAOYSA-N,CC(CC1=CC=C(C=C1)C(C)(C)C)C=NC2=CC=CC=C2C(=O)OC,000091-51-0,-5.545952099,COC(=O)c1ccccc1N=CC(C)Cc1ccc(C(C)(C)C)cc1
2363,B-7116,4.5.6.6a-tetrahydro-3aH-cyclopenta[c]pyrrole-1.3-dione,QCWDCTDYSDJKTP-UHFFFAOYSA-N,C1CC2C(C1)C(=O)NC2=O,005763-44-0,0.15535863,O=C1NC(=O)C2CCCC12
2364,B-7117,bis(3-methylbutyl) benzene-1.2-dicarboxylate,JANBFCARANRIKJ-UHFFFAOYSA-N,CC(C)CCOC(=O)C1=CC=CC=C1C(=O)OCCC(C)C,000605-50-5,-5.444897493,CC(C)CCOC(=O)c1ccccc1C(=O)OCCC(C)C
2365,B-7118,phenyl pentadecane-1-sulfonate,UDKSLGIUCGAZTK-UHFFFAOYSA-N,CCCCCCCCCCCCCCCS(=O)(=O)OC1=CC=CC=C1,091082-17-6,-5.224101544,CCCCCCCCCCCCCCCS(=O)(=O)Oc1ccccc1
2366,B-7119,3-[(E)-oct-1-enyl]oxolane-2.5-dione,FLISWPFVWWWNNP-BQYQJAHWSA-N,CCCCCC/C=C/C1CC(=O)OC1=O,026680-54-6,-4.021752276,CCCCCCC=CC1CC(=O)OC1=O
2367,B-7120,1-[4-(4-chlorophenoxy)-2-(trifluoromethyl)phenyl]ethanone,CSIQWPNHZNGRLC-UHFFFAOYSA-N,CC(=O)C1=C(C=C(C=C1)OC2=CC=C(C=C2)Cl)C(F)(F)F,1417782-28-5,-5.288369308,CC(=O)c1ccc(Oc2ccc(Cl)cc2)cc1C(F)(F)F
2368,B-7121,5-methyl-3a.4.5.6.7.7a-hexahydro-2-benzofuran-1.3-dione,FKBMTBAXDISZGN-UHFFFAOYSA-N,CC1CCC2C(C1)C(=O)OC2=O,019438-60-9,-1.24808173,CC1CCC2C(=O)OC(=O)C2C1
2369,B-7122,4-Amino-3-methylphenol,QGNGOGOOPUYKMC-UHFFFAOYSA-N,CC1=C(C=CC(=C1)O)N,002835-99-6,-1.789419232,Cc1cc(O)ccc1N
2370,B-7123,Bis(2-ethylhexyl) decanedioate,VJHINFRRDQUWOJ-UHFFFAOYSA-N,CCCCC(CC)COC(=O)CCCCCCCCC(=O)OCC(CC)CCCC,000122-62-3,-3.329070866,CCCCC(CC)COC(=O)CCCCCCCCC(=O)OCC(CC)CCCC
2371,B-7124,N-(5-methylhexan-2-yl)-N'-phenylbenzene-1.4-diamine,UHJVLUYSDYOULM-UHFFFAOYSA-N,CC(C)CCC(C)NC1=CC=C(C=C1)NC2=CC=CC=C2,003081-01-4,-5.62483264,CC(C)CCC(C)Nc1ccc(Nc2ccccc2)cc1
2372,B-7125,5-methyl-2-phenyl-4-phenyldiazenyl-4H-pyrazol-3-one,XCKGFJPFEHHHQA-UHFFFAOYSA-N,CC1=NN(C(=O)C1N=NC2=CC=CC=C2)C3=CC=CC=C3,004314-14-1,-7.541443194,CC1=NN(c2ccccc2)C(=O)C1N=Nc1ccccc1
2373,B-7126,methyl 3-(3.5-ditert-butyl-4-hydroxyphenyl)propanoate,PXMJCECEFTYEKE-UHFFFAOYSA-N,CC(C)(C)C1=CC(=CC(=C1O)C(C)(C)C)CCC(=O)OC,006386-38-5,-5.12358053,COC(=O)CCc1cc(C(C)(C)C)c(O)c(C(C)(C)C)c1
2374,B-7127,Ethyl 4-oxopentanoate,GMEONFUTDYJSNV-UHFFFAOYSA-N,CCOC(=O)CCC(=O)C,000539-88-8,0.073358623,CCOC(=O)CCC(C)=O
2375,B-7128,2.2-dimethyl-1.3-dihydroperimidine,DETLTZYXZWIXIB-UHFFFAOYSA-N,CC1(NC2=CC=CC3=C2C(=CC=C3)N1)C,006364-17-6,-2.929894514,CC1(C)Nc2cccc3cccc(c23)N1
2376,B-7129,tris(phenoxy)-sulfanylidenephosphorane,IKXFIBBKEARMLL-UHFFFAOYSA-N,C1=CC=C(C=C1)OP(=S)(OC2=CC=CC=C2)OC3=CC=CC=C3,000597-82-0,-6.954684833,S=P(Oc1ccccc1)(Oc1ccccc1)Oc1ccccc1
2377,B-7130,benzo[de]isoquinoline-1.3-dione,XJHABGPPCLHLLV-UHFFFAOYSA-N,C1=CC2=C3C(=C1)C(=O)NC(=O)C3=CC=C2,000081-83-4,-4.692831062,O=C1NC(=O)c2cccc3cccc1c23
2378,B-7131,1-(2-hydroxyethyl)-2.2.6.6-tetramethylpiperidin-4-ol,STEYNUVPFMIUOY-UHFFFAOYSA-N,CC1(CC(CC(N1CCO)(C)C)O)C,052722-86-8,-0.85981667,CC1(C)CC(O)CC(C)(C)N1CCO
2379,B-7132,dibutyl 1.2.3.4.7.7-hexachlorobicyclo[2.2.1]hept-2-ene-5.6-dicarboxylate,UJAHPBDUQZFDLA-UHFFFAOYSA-N,CCCCOC(=O)C1C(C2(C(=C(C1(C2(Cl)Cl)Cl)Cl)Cl)Cl)C(=O)OCCCC,001770-80-5,-7.509558556,CCCCOC(=O)C1C(C(=O)OCCCC)C2(Cl)C(Cl)=C(Cl)C1(Cl)C2(Cl)Cl
2380,B-7133,4-(4-Hydroxyphenyl)butan-2-one,NJGBTKGETPDVIK-UHFFFAOYSA-N,CC(=O)CCC1=CC=C(C=C1)O,005471-51-2,-1.552039883,CC(=O)CCc1ccc(O)cc1
2381,B-7134,2-methyl-1-(4-methylsulfanylphenyl)-2-morpholin-4-ylpropan-1-one,LWRBVKNFOYUCNP-UHFFFAOYSA-N,CC(C)(C(=O)C1=CC=C(C=C1)SC)N2CCOCC2,071868-10-5,-4.193367775,CSc1ccc(C(=O)C(C)(C)N2CCOCC2)cc1
2382,B-7135,4-Methyl-3-nitrobenzoic acid,BBEWSMNRCUXQRF-UHFFFAOYSA-N,CC1=C(C=C(C=C1)C(=O)O)[N+](=O)[O-],000096-98-0,-2.848099461,Cc1ccc(C(=O)O)cc1[N+](=O)[O-]
2383,B-7136,2-ethylhexoxycarbonyloxy 2-ethylhexyl carbonate,ZACVGCNKGYYQHA-UHFFFAOYSA-N,CCCCC(CC)COC(=O)OOC(=O)OCC(CC)CCCC,016111-62-9,-2.595174189,CCCCC(CC)COC(=O)OOC(=O)OCC(CC)CCCC
2384,B-7137,Ethyl 5.5-dimethyl-2.4-dioxohexanoate,NIMKIMUBJFWPTD-UHFFFAOYSA-N,CCOC(=O)C(=O)CC(=O)C(C)(C)C,013487-27-9,-3.668069368,CCOC(=O)C(=O)CC(=O)C(C)(C)C
2385,B-7138,4-methylhexyl 3-[3-(benzotriazol-2-yl)-5-tert-butyl-4-hydroxyphenyl]propanoate,HMILXGPZMQDAKE-UHFFFAOYSA-N,CCC(C)CCCOC(=O)CCC1=CC(=C(C(=C1)N2N=C3C=CC=CC3=N2)O)C(C)(C)C,127519-17-9,-7.385785753,CCC(C)CCCOC(=O)CCc1cc(-n2nc3ccccc3n2)c(O)c(C(C)(C)C)c1
2386,B-7139,8-thiahexacyclo[10.10.2.02.7.09.23.013.18.020.24]tetracosa-1(23).2.4.6.9.11.13.15.17.20(24).21-undecaen-19-one,NVNWZZLOQBHTCW-UHFFFAOYSA-N,C1=CC=C2C(=C1)C3=CC=C4C5=C(C=CC(=C35)C2=O)C6=CC=CC=C6S4,016294-75-0,-7.982797238,O=c1c2ccccc2c2ccc3sc4ccccc4c4ccc1c2c34
2387,B-7140,5-chloro-2-(4-chlorophenoxy)phenol,BYNQFCJOHGOKSS-UHFFFAOYSA-N,C1=CC(=CC=C1OC2=C(C=C(C=C2)Cl)O)Cl,003380-30-1,-4.116675847,Oc1cc(Cl)ccc1Oc1ccc(Cl)cc1
2388,B-7141,4-(morpholin-4-ylmethyl)-N-phenylaniline,PSCDYTTVVQKADI-UHFFFAOYSA-N,C1COCCN1CC2=CC=C(C=C2)NC3=CC=CC=C3,006613-64-5,0.804281888,c1ccc(Nc2ccc(CN3CCOCC3)cc2)cc1
2389,B-7142,2.2.4.4-tetramethyl-7-oxa-3.20-diazadispiro[5.1.11^{8}.2^{6}]henicosan-21-one,IVVLFHBYPHTMJU-UHFFFAOYSA-N,CC1(CC2(CC(N1)(C)C)C(=O)NC3(O2)CCCCCCCCCCC3)C,064338-16-5,-5.084659912,CC1(C)CC2(CC(C)(C)N1)OC1(CCCCCCCCCCC1)NC2=O
2390,B-7143,1.2-bis(2-methylphenyl)guanidine,OPNUROKCUBTKLF-UHFFFAOYSA-N,CC1=CC=CC=C1NC(=NC2=CC=CC=C2C)N,000097-39-2,-3.533879865,Cc1ccccc1N=C(N)Nc1ccccc1C
2391,B-7144,1-ethyl-4.5-di(phenyl)imidazole,USAZIWXOIGUZSS-UHFFFAOYSA-N,CCN1C=NC(=C1C2=CC=CC=C2)C3=CC=CC=C3,016409-44-2,-3.935631104,CCn1cnc(-c2ccccc2)c1-c1ccccc1
2392,B-7145,2-[(2-nitrophenyl)amino]ethanol,LFOUYKNCQNVIGI-UHFFFAOYSA-N,C1=CC=C(C(=C1)NCCO)[N+](=O)[O-],004926-55-0,-1.993325632,O=[N+]([O-])c1ccccc1NCCO
2393,B-7146,2-phenylethyl (E)-3-phenylprop-2-enoate,MJQVZIANGRDJBT-VAWYXSNFSA-N,C1=CC=C(C=C1)CCOC(=O)/C=C/C2=CC=CC=C2,000103-53-7,-5.40193825,O=C(C=Cc1ccccc1)OCCc1ccccc1
2394,B-7147,12-(2-methylprop-2-enoyloxy)dodecyl 2-methylprop-2-enoate,HYQASEVIBPSPMK-UHFFFAOYSA-N,CC(=C)C(=O)OCCCCCCCCCCCCOC(=O)C(=C)C,072829-09-5,-7.484217989,C=C(C)C(=O)OCCCCCCCCCCCCOC(=O)C(=C)C
2395,B-7148,N.N-bis(oxiran-2-ylmethyl)aniline,JAYXSROKFZAHRQ-UHFFFAOYSA-N,C1C(O1)CN(CC2CO2)C3=CC=CC=C3,002095-06-9,-1.962047843,c1ccc(N(CC2CO2)CC2CO2)cc1
2396,B-7149,1.7.8.9.10.10-hexachloro-4-oxatricyclo[5.2.1.02.6]dec-8-ene-3.5-dione,FLBJFXNAEMSXGL-UHFFFAOYSA-N,C12C(C(=O)OC1=O)C3(C(=C(C2(C3(Cl)Cl)Cl)Cl)Cl)Cl,000115-27-5,-2.871075487,O=C1OC(=O)C2C1C1(Cl)C(Cl)=C(Cl)C2(Cl)C1(Cl)Cl
2397,B-7150,(1S.5S.8R.9S.10S.13S.14S.17S)-17-hydroxy-1.10.13-trimethyl-1.2.4.5.6.7.8.9.11.12.14.15.16.17-tetradecahydrocyclopenta[a]phenanthren-3-one,UXYRZJKIQKRJCF-TZPFWLJSSA-N,C[C@H]1CC(=O)C[C@H]2[C@]1([C@H]3CC[C@]4([C@H]([C@@H]3CC2)CC[C@@H]4O)C)C,001424-00-6,-5.006425535,CC1CC(=O)CC2CCC3C4CCC(O)C4(C)CCC3C12C
2398,B-7151,oxolane-2.5-dione,RINCXYDBBGOEEQ-UHFFFAOYSA-N,C1CC(=O)OC1=O,000108-30-5,-0.201669746,O=C1CCC(=O)O1
2399,B-7152,2-propan-2-ylsulfanyl-3-(2.2.2-trifluoroethoxy)pyridine,FGENXPNYGNZCEB-UHFFFAOYSA-N,CC(C)SC1=C(C=CC=N1)OCC(F)(F)F,256473-05-9,-3.417862666,CC(C)Sc1ncccc1OCC(F)(F)F
2400,B-7153,diprop-2-enyl cyclohexane-1.2-dicarboxylate,HEBKPAWCVUSXMB-UHFFFAOYSA-N,C=CCOC(=O)C1CCCCC1C(=O)OCC=C,013846-31-6,-3.36054109,C=CCOC(=O)C1CCCCC1C(=O)OCC=C
2401,B-7154,2-Aminopyridin-3-ol,BMTSZVZQNMNPCT-UHFFFAOYSA-N,C1=CC(=C(N=C1)N)O,016867-03-1,-0.346102997,Nc1ncccc1O
2402,B-7155,phenylmethyl 2-phenylacetate,MIYFJEKZLFWKLZ-UHFFFAOYSA-N,C1=CC=C(C=C1)CC(=O)OCC2=CC=CC=C2,000102-16-9,-3.863273728,O=C(Cc1ccccc1)OCc1ccccc1
2403,B-7156,5-chlorosulfonyl-2-diazonionaphthalen-1-olate,DZQQBMOSBPOYFX-UHFFFAOYSA-N,C1=CC2=C(C=CC(=C2[O-])[N+]#N)C(=C1)S(=O)(=O)Cl,003770-97-6,-1.785782663,N#[N+]c1ccc2c(S(=O)(=O)Cl)cccc2c1[O-]
2404,B-7157,(NE)-N-(pyridin-2-ylmethylidene)hydroxylamine,MTFJSAGADRTKCI-VMPITWQZSA-N,C1=CC=NC(=C1)/C=N/O,000873-69-8,-1.000449013,ON=Cc1ccccn1
2405,B-7158,2-(7-methoxy-3.4-dihydronaphthalen-1-yl)acetonitrile,MGJHVZKRAOYORH-UHFFFAOYSA-N,COC1=CC2=C(CCC=C2CC#N)C=C1,861960-34-1,-3.623619988,COc1ccc2c(c1)C(CC#N)=CCC2
2406,B-7159,Bis(2.4.4-trimethylpentyl)phosphinic acid,QUXFOKCUIZCKGS-UHFFFAOYSA-N,CC(CC(C)(C)C)CP(=O)(CC(C)CC(C)(C)C)O,083411-71-6,-4.366124135,CC(CC(C)(C)C)CP(=O)(O)CC(C)CC(C)(C)C
2407,B-7160,2-[2.4-bis(2-methylbutan-2-yl)phenoxy]-N-(3.5-dichloro-4-ethyl-2-hydroxyphenyl)butanamide,LFDFDMAPABBGSE-UHFFFAOYSA-N,CCC1=C(C=C(C(=C1Cl)O)NC(=O)C(CC)OC2=C(C=C(C=C2)C(C)(C)CC)C(C)(C)CC)Cl,093951-12-3,-6.520488657,CCc1c(Cl)cc(NC(=O)C(CC)Oc2ccc(C(C)(C)CC)cc2C(C)(C)CC)c(O)c1Cl
2408,B-7161,diethyl 2-chloropropanedioate,WLWCQKMQYZFTDR-UHFFFAOYSA-N,CCOC(=O)C(C(=O)OCC)Cl,014064-10-9,-1.720973471,CCOC(=O)C(Cl)C(=O)OCC
2409,B-7162,1-[(3S.8S.9S.10R.13S.14S.16R.17S)-3-hydroxy-10.13.16-trimethyl-2.3.4.7.8.9.11.12.14.15.16.17-dodecahydro-1H-cyclopenta[a]phenanthren-17-yl]ethanone,XXSFRYVGIQYVIQ-RDTLVLTASA-N,C[C@@H]1C[C@H]2[C@@H]3CC=C4C[C@H](CC[C@@]4([C@H]3CC[C@@]2([C@H]1C(=O)C)C)C)O,020030-30-2,-2.263911311,CC(=O)C1C(C)CC2C3CC=C4CC(O)CCC4(C)C3CCC21C
2410,B-7163,2.6-ditert-butyl-4-[(3.5-ditert-butyl-4-hydroxyphenyl)methyl]phenol,MDWVSAYEQPLWMX-UHFFFAOYSA-N,CC(C)(C)C1=CC(=CC(=C1O)C(C)(C)C)CC2=CC(=C(C(=C2)C(C)(C)C)O)C(C)(C)C,000118-82-1,-10.12425619,CC(C)(C)c1cc(Cc2cc(C(C)(C)C)c(O)c(C(C)(C)C)c2)cc(C(C)(C)C)c1O
2411,B-7164,[4-(benzoyl)phenyl] 2-methylprop-2-enoate,RYWGNBFHIFRNEP-UHFFFAOYSA-N,CC(=C)C(=O)OC1=CC=C(C=C1)C(=O)C2=CC=CC=C2,056467-43-7,-4.823304326,C=C(C)C(=O)Oc1ccc(C(=O)c2ccccc2)cc1
2412,B-7165,2-Phenylethyl 2-hydroxybenzoate,YNMSDIQQNIRGDP-UHFFFAOYSA-N,C1=CC=C(C=C1)CCOC(=O)C2=CC=CC=C2O,000087-22-9,-4.489104976,O=C(OCCc1ccccc1)c1ccccc1O
2413,B-7166,4-Chloro-2.5-dimethoxyaniline,YGUFQYGSBVXPMC-UHFFFAOYSA-N,COC1=CC(=C(C=C1N)OC)Cl,006358-64-1,-3.006120134,COc1cc(Cl)c(OC)cc1N
2414,B-7167,2-(benzoyloxy)ethyl benzoate,XFDQLDNQZFOAFK-UHFFFAOYSA-N,C1=CC=C(C=C1)C(=O)OCCOC(=O)C2=CC=CC=C2,000094-49-5,-5.070092823,O=C(OCCOC(=O)c1ccccc1)c1ccccc1
2415,B-7168,3a.4.7.7a-tetrahydroisoindole-1.3-dione,CIFFBTOJCKSRJY-UHFFFAOYSA-N,C1C=CCC2C1C(=O)NC2=O,000085-40-5,-1.093090269,O=C1NC(=O)C2CC=CCC12
2416,B-7169,2-tert-butyl-6-[(3-tert-butyl-5-ethyl-2-hydroxyphenyl)methyl]-4-ethylphenol,GPNYZBKIGXGYNU-UHFFFAOYSA-N,CCC1=CC(=C(C(=C1)C(C)(C)C)O)CC2=C(C(=CC(=C2)CC)C(C)(C)C)O,000088-24-4,-8.699628264,CCc1cc(Cc2cc(CC)cc(C(C)(C)C)c2O)c(O)c(C(C)(C)C)c1
2417,B-7170,bis(8-methylnonyl) benzene-1.2-dicarboxylate,ZVFDTKUVRCTHQE-UHFFFAOYSA-N,CC(C)CCCCCCCOC(=O)C1=CC=CC=C1C(=O)OCCCCCCCC(C)C,068515-49-1,-9.419536891,CC(C)CCCCCCCOC(=O)c1ccccc1C(=O)OCCCCCCCC(C)C
2418,B-7171,S-(5-sulfanyl-1.3.4-thiadiazol-2-yl) benzenecarbothioate,KIFSWJVHFMQPOS-UHFFFAOYSA-N,C1=CC=C(C=C1)C(=O)SC2=NN=C(S2)S,051988-14-8,-0.992113537,O=C(Sc1nnc(S)s1)c1ccccc1
2419,B-7172,N-phenylbenzene-1.4-diamine,ATGUVEKSASEFFO-UHFFFAOYSA-N,C1=CC=C(C=C1)NC2=CC=C(C=C2)N,000101-54-2,-2.566414392,Nc1ccc(Nc2ccccc2)cc1
2420,B-7173,4-chlorosulfonyl-2-diazonionaphthalen-1-olate,HAGVXVSNIARVIZ-UHFFFAOYSA-N,C1=CC=C2C(=C1)C(=CC(=C2[O-])[N+]#N)S(=O)(=O)Cl,036451-09-9,-2.849451743,N#[N+]c1cc(S(=O)(=O)Cl)c2ccccc2c1[O-]
2421,B-7174,(4-ethylphenyl)boronic acid,RZCPLOMUUCFPQA-UHFFFAOYSA-N,B(C1=CC=C(C=C1)CC)(O)O,063139-21-9,-2.100497102,CCc1ccc(B(O)O)cc1