,C_ID,Name,InChIKey,SMILES,CAS,LogS,smiles_canon
1639,B-6353,4-cyclohexylbutan-2-ol,ZBLQQRZVKHLRBF-UHFFFAOYSA-N,CC(CCC1CCCCC1)O,010528-67-3,-2.767357125,CC(O)CCC1CCCCC1
1640,B-6354,(2S)-6-methyl-2-[(1S)-4-methyl-1-cyclohex-3-enyl]hept-5-en-2-ol,RGZSQWQPBWRIAQ-CABCVRRESA-N,CC1=CC[C@H](CC1)[C@](C)(CCC=C(C)C)O,023089-26-1,-4.004653125,CC(C)=CCCC(C)(O)C1CC=C(C)CC1
1641,B-6355,Ethyl 2-ethylhexanoate,YXAGIRHBJJLWHW-UHFFFAOYSA-N,CCCCC(CC)C(=O)OCC,002983-37-1,-3.42328823,CCCCC(CC)C(=O)OCC
1642,B-6356,1.3-Dioxepane,CZLMRJZAHXYRIX-UHFFFAOYSA-N,C1CCOCOC1,000505-65-7,0.41079051,C1CCOCOC1
1643,B-6357,N-(1.5-dimethyl-8-bicyclo[3.2.1]octanylidene)hydroxylamine,RADAAKRXEPVXBU-UHFFFAOYSA-N,CC12CCCC(C1=NO)(CC2)C,075147-23-8,-3.074148052,CC12CCCC(C)(CC1)C2=NO
1644,B-6358,tridecan-1-ol,XFRVVPUIAFSTFO-UHFFFAOYSA-N,CCCCCCCCCCCCCO,000112-70-9,-3.301818826,CCCCCCCCCCCCCO
1645,B-6359,[(1R.2S.5R.8S)-4.4.8-trimethyl-1-tricyclo[6.3.1.02.5]dodecanyl] acetate,SJDDHMSVZMBJPH-YQFWSFKMSA-N,CC(=O)O[C@]12CCC[C@](C1)(CC[C@@H]3[C@@H]2CC3(C)C)C,057082-24-3,-4.221300767,CC(=O)OC12CCCC(C)(CCC3C1CC3(C)C)C2
1646,B-6360,hexyl prop-2-enoate,LNMQRPPRQDGUDR-UHFFFAOYSA-N,CCCCCCOC(=O)C=C,002499-95-8,-3.434836417,C=CC(=O)OCCCCCC
1647,B-6361,ethoxymethoxycyclododecane,VQNUNMBDOKEZHS-UHFFFAOYSA-N,CCOCOC1CCCCCCCCCCC1,058567-11-6,-5.335316026,CCOCOC1CCCCCCCCCCC1
1648,B-6362,2.4.4.7-tetramethyloct-6-en-3-one,CTLDWNVYXLHMAS-UHFFFAOYSA-N,CC(C)C(=O)C(C)(C)CC=C(C)C,074338-72-0,-3.489211576,CC(C)=CCC(C)(C)C(=O)C(C)C
1649,B-6363,1-(Chloromethyl)-2-methylbenzene,VQRBXYBBGHOGFT-UHFFFAOYSA-N,CC1=CC=CC=C1CCl,000552-45-4,-3.081324144,Cc1ccccc1CCl
1650,B-6364,propan-2-yl 2-methylbutanoate,DIRDKDDFAMNBNY-UHFFFAOYSA-N,CCC(C)C(=O)OC(C)C,066576-71-4,-2.319526966,CCC(C)C(=O)OC(C)C
1651,B-6365,Methyl 2-ethylhexanoate,KICUISADAVMYCJ-UHFFFAOYSA-N,CCCCC(CC)C(=O)OC,000816-19-3,-2.961270171,CCCCC(CC)C(=O)OC
1652,B-6366,1.1-Dimethoxyoctane,BZOOCKAFKVYAOZ-UHFFFAOYSA-N,CCCCCCCC(OC)OC,010022-28-3,-2.91800193,CCCCCCCC(OC)OC
1653,B-6367,1-methyl-2-(phenylmethyl)benzene,PQTAUFTUHHRKSS-UHFFFAOYSA-N,CC1=CC=CC=C1CC2=CC=CC=C2,027776-01-8,-4.692500603,Cc1ccccc1Cc1ccccc1
1654,B-6368,2-Chlorobenzaldehyde,FPYUJUBAXZAQNL-UHFFFAOYSA-N,C1=CC=C(C(=C1)C=O)Cl,000089-98-5,-1.980571912,O=Cc1ccccc1Cl
1655,B-6369,3.7-Dimethyloctan-3-yl acetate,RBKRCARRXLFUGJ-UHFFFAOYSA-N,CCC(C)(CCCC(C)C)OC(=O)C,020780-48-7,-5.103068092,CCC(C)(CCCC(C)C)OC(C)=O
1656,B-6370,2.4.6-tri(butan-2-yl)phenol,LAVMWOGIDKQCDK-UHFFFAOYSA-N,CCC(C)C1=CC(=C(C(=C1)C(C)CC)O)C(C)CC,005892-47-7,-6.720050758,CCC(C)c1cc(C(C)CC)c(O)c(C(C)CC)c1
1657,B-6371,Undecanal,KMPQYAYAQWNLME-UHFFFAOYSA-N,CCCCCCCCCCC=O,000112-44-7,-3.152018611,CCCCCCCCCCC=O
1658,B-6372,1-(2.4-dichlorophenyl)ethanone,XMCRWEBERCXJCH-UHFFFAOYSA-N,CC(=O)C1=C(C=C(C=C1)Cl)Cl,002234-16-4,-2.70753296,CC(=O)c1ccc(Cl)cc1Cl
1659,B-6373,tri(propan-2-yl)silyl prop-2-enoate,PQSIXYSSKXAOFE-UHFFFAOYSA-N,CC(C)[Si](C(C)C)(C(C)C)OC(=O)C=C,157859-20-6,-4.943734921,C=CC(=O)O[Si](C(C)C)(C(C)C)C(C)C
1660,B-6374,(1.7.7-trimethyl-6-bicyclo[2.2.1]heptanyl) 2-methylprop-2-enoate,IAXXETNIOYFMLW-UHFFFAOYSA-N,CC(=C)C(=O)OC1CC2CCC1(C2(C)C)C,007534-94-3,-4.611392527,C=C(C)C(=O)OC1CC2CCC1(C)C2(C)C
1661,B-6375,5-Methylheptan-3-one,PSBKJPTZCVYXSD-UHFFFAOYSA-N,CCC(C)CC(=O)CC,000541-85-5,-1.630813517,CCC(=O)CC(C)CC
1662,B-6376,hexyl 2-methylprop-2-enoate,LNCPIMCVTKXXOY-UHFFFAOYSA-N,CCCCCCOC(=O)C(=C)C,000142-09-6,-3.755418483,C=C(C)C(=O)OCCCCCC
1663,B-6377,(2.6.6.8-tetramethyl-8-tricyclo[5.3.1.01.5]undecanyl) acetate,HQKQRXZEXPXXIG-UHFFFAOYSA-N,CC1CCC2C13CCC(C(C3)C2(C)C)(C)OC(=O)C,000077-54-3,-5.426637754,CC(=O)OC1(C)CCC23CC1C(C)(C)C2CCC3C
1664,B-6378,dicyclopentyl-dimethoxysilane,JWCYDYZLEAQGJJ-UHFFFAOYSA-N,CO[Si](C1CCCC1)(C2CCCC2)OC,126990-35-0,-4.632796636,CO[Si](OC)(C1CCCC1)C1CCCC1
1665,B-6379,Cyclopentanone,BGTOWKSIORTVQH-UHFFFAOYSA-N,C1CCC(=O)C1,000120-92-3,0.553679622,O=C1CCCC1
1666,B-6381,Ethyl 2-methylpentanoate,HZPKNSYIDSNZKW-UHFFFAOYSA-N,CCCC(C)C(=O)OCC,039255-32-8,-2.489688133,CCCC(C)C(=O)OCC
1667,B-6382,[(Z)-hex-3-enyl] 2-methylpropanoate,OSMAJVWUIUORGC-WAYWQWQTSA-N,CC/C=C\CCOC(=O)C(C)C,041519-23-7,-3.17418482,CCC=CCCOC(=O)C(C)C
1668,B-6383,1.2.3.4.4a.5.6.7.8.8a-decahydronaphthalen-2-yl acetate,XKCLIPLFEJSOAT-UHFFFAOYSA-N,CC(=O)OC1CCC2CCCCC2C1,010519-11-6,-3.56050176,CC(=O)OC1CCC2CCCCC2C1
1669,B-6384,4-(3-methylbutyl)cyclohexan-1-ol,QNRGJHPSMHZLCY-UHFFFAOYSA-N,CC(C)CCC1CCC(CC1)O,830322-14-0,-3.218362632,CC(C)CCC1CCC(O)CC1
1670,B-6385,1-(butoxymethoxy)butane,QLCJOAMJPCOIDI-UHFFFAOYSA-N,CCCCOCOCCCC,002568-90-3,-2.806873748,CCCCOCOCCCC
1671,B-6386,Cyclododecanone,SXVPOSFURRDKBO-UHFFFAOYSA-N,C1CCCCCC(=O)CCCCC1,000830-13-7,-3.829435292,O=C1CCCCCCCCCCC1
1672,B-6387,1-Diethylaminopropan-2-ol,BHUXAQIVYLDUQV-UHFFFAOYSA-N,CCN(CC)CC(C)O,004402-32-8,0.10211666,CCN(CC)CC(C)O
1673,B-6388,1.3-Dichloro-5-nitrobenzene,RNABGKOKSBUFHW-UHFFFAOYSA-N,C1=C(C=C(C=C1Cl)Cl)[N+](=O)[O-],000618-62-2,-3.584333939,O=[N+]([O-])c1cc(Cl)cc(Cl)c1
1674,B-6389,prop-2-enyl (1R.6S)-2.2.6-trimethylcyclohexane-1-carboxylate,VLGGPCDFFINQCD-QWRGUYRKSA-N,C[C@H]1CCCC([C@@H]1C(=O)OCC=C)(C)C,1648784-10-4,-4.173652375,C=CCOC(=O)C1C(C)CCCC1(C)C
1675,B-6390,propan-2-yl 2-ethylhexanoate,KWJPCZGVGLPKMD-UHFFFAOYSA-N,CCCCC(CC)C(=O)OC(C)C,067024-46-8,-5.378103333,CCCCC(CC)C(=O)OC(C)C
1676,B-6391,3-Methylcyclopentadecan-1-one,ALHUZKCOMYUFRB-UHFFFAOYSA-N,CC1CCCCCCCCCCCCC(=O)C1,000541-91-3,-5.743860384,CC1CCCCCCCCCCCCC(=O)C1
1677,B-6392,2-ethylhexyl 2-methylprop-2-enoate,WDQMWEYDKDCEHT-UHFFFAOYSA-N,CCCCC(CC)COC(=O)C(=C)C,000688-84-6,-4.805971095,C=C(C)C(=O)OCC(CC)CCCC
1678,B-6393,(3.3.5-trimethylcyclohexyl) prop-2-enoate,ZMTBGVBNTHTBEC-UHFFFAOYSA-N,CC1CC(CC(C1)(C)C)OC(=O)C=C,086178-38-3,-4.03044443,C=CC(=O)OC1CC(C)CC(C)(C)C1
1679,B-6394,(2S.6R)-2.6-dimethylmorpholin-4-ium,HNVIQLPOGUDBSU-OLQVQODUSA-N,CC1CNCC(O1)C,006485-55-8,0.938660633,CC1CNCC(C)O1
1680,B-6396,6.6-Dimethoxy-2.5.5-trimethylhex-2-ene,RDHNTAXPFZIMDN-UHFFFAOYSA-N,CC(=CCC(C)(C)C(OC)OC)C,067674-46-8,-3.33975834,COC(OC)C(C)(C)CC=C(C)C
1681,B-6397,[2-(2-methylbutan-2-yl)cyclohexyl] acetate,YEVACTAGDANHRH-UHFFFAOYSA-N,CCC(C)(C)C1CCCCC1OC(=O)C,067874-72-0,-4.446200631,CCC(C)(C)C1CCCCC1OC(C)=O
1682,B-6398,cyclohexyl 2-methylprop-2-enoate,OIWOHHBRDFKZNC-UHFFFAOYSA-N,CC(=C)C(=O)OC1CCCCC1,000101-43-9,-3.088562757,C=C(C)C(=O)OC1CCCCC1
1683,B-6399,(2.3-dimethyl-3-phenylbutan-2-yl)benzene,HGTUJZTUQFXBIH-UHFFFAOYSA-N,CC(C)(C1=CC=CC=C1)C(C)(C)C2=CC=CC=C2,001889-67-4,-6.474164889,CC(C)(c1ccccc1)C(C)(C)c1ccccc1
1684,B-6401,(4-propan-2-ylcyclohexyl) propanoate,FFEOEKMMMQFWBO-UHFFFAOYSA-N,CCC(=O)OC1CCC(CC1)C(C)C,063449-95-6,-4.173481148,CCC(=O)OC1CCC(C(C)C)CC1
1685,B-6402,2-Ethylhexyl nitrate,NKRVGWFEFKCZAP-UHFFFAOYSA-N,CCCCC(CC)CO[N+](=O)[O-],027247-96-7,-4.146691508,CCCCC(CC)CO[N+](=O)[O-]
1686,B-6403,2.5.7.7-tetramethyloctanal,HZAYXCABCQOHLC-UHFFFAOYSA-N,CC(CCC(C)C=O)CC(C)(C)C,114119-97-0,-4.541298948,CC(C=O)CCC(C)CC(C)(C)C
1687,B-6404,11-methyldodecan-1-ol,XUJLWPFSUCHPQL-UHFFFAOYSA-N,CC(C)CCCCCCCCCCO,027458-92-0,-5.000788831,CC(C)CCCCCCCCCCO
1688,B-6405,prop-2-enyl 2-methylprop-2-enoate,FBCQUCJYYPMKRO-UHFFFAOYSA-N,CC(=C)C(=O)OCC=C,000096-05-9,-1.774567918,C=CCOC(=O)C(=C)C
1689,B-6406,6-chloro-1.3-benzoxazole,JJOOKXUUVWIARB-UHFFFAOYSA-N,C1=CC2=C(C=C1Cl)OC=N2,227197-72-0,-2.32297702,Clc1ccc2ncoc2c1
1690,B-6407,(4-tert-butylcyclohexyl) 2-methylprop-2-enoate,PILKNUBLAZTESB-UHFFFAOYSA-N,CC(=C)C(=O)OC1CCC(CC1)C(C)(C)C,046729-07-1,-6.74885137,C=C(C)C(=O)OC1CCC(C(C)(C)C)CC1
1691,B-6408,2-methoxyethylbenzene,CQLYXIUHVFRXLT-UHFFFAOYSA-N,COCCC1=CC=CC=C1,003558-60-9,-2.300256441,COCCc1ccccc1
1692,B-6409,2.4-Dichloro-1-(chloromethyl)benzene,IRSVDHPYXFLLDS-UHFFFAOYSA-N,C1=CC(=C(C=C1Cl)Cl)CCl,000094-99-5,-3.512941082,ClCc1ccc(Cl)cc1Cl
1693,B-6410,2.3.4-Trichlorobut-1-ene,WZUZDBPJFHQVJC-UHFFFAOYSA-N,C=C(C(CCl)Cl)Cl,002431-50-7,-2.424452845,C=C(Cl)C(Cl)CCl
1694,B-6411,3-Methylbutyl butanoate,PQLMXFQTAMDXIZ-UHFFFAOYSA-N,CCCC(=O)OCCC(C)C,000106-27-4,-2.932849379,CCCC(=O)OCCC(C)C
1695,B-6412,2.4.6-trimethylcyclohex-3-ene-1-carbaldehyde,YJSUCBQWLKRPDL-UHFFFAOYSA-N,CC1CC(=CC(C1C=O)C)C,001423-46-7,-1.8440603,CC1=CC(C)C(C=O)C(C)C1
1696,B-6413,2-methylbutyl prop-2-enoate,NCTBYWFEJFTVEL-UHFFFAOYSA-N,CCC(C)COC(=O)C=C,044914-03-6,-2.653204573,C=CC(=O)OCC(C)CC
1697,B-6414,Hexyl propanoate,GOKKOFHHJFGZHW-UHFFFAOYSA-N,CCCCCCOC(=O)CC,002445-76-3,-3.399286915,CCCCCCOC(=O)CC
1698,B-6415,1-lambda1-oxidanyl-2.2.6.6-tetramethylpiperidine,QYTDEUPAUMOIOP-UHFFFAOYSA-N,CC1(CCCC(N1[O])(C)C)C,002564-83-2,-1.129354532,CC1(C)CCCC(C)(C)N1[O]
1699,B-6416,4-butan-2-yl-2.6-ditert-butylphenol,BFZOTKYPSZSDEV-UHFFFAOYSA-N,CCC(C)C1=CC(=C(C(=C1)C(C)(C)C)O)C(C)(C)C,017540-75-9,-6.308431052,CCC(C)c1cc(C(C)(C)C)c(O)c(C(C)(C)C)c1
1700,B-6417,decyl 2-methylprop-2-enoate,GTBGXKPAKVYEKJ-UHFFFAOYSA-N,CCCCCCCCCCOC(=O)C(=C)C,003179-47-3,-6.055943155,C=C(C)C(=O)OCCCCCCCCCC
1701,B-6418,3.5.5-Trimethylhexan-1-ol,BODRLKRKPXBDBN-UHFFFAOYSA-N,CC(CCO)CC(C)(C)C,003452-97-9,-2.557075099,CC(CCO)CC(C)(C)C
1702,B-6419,(1.7.7-trimethyl-6-bicyclo[2.2.1]heptanyl) propanoate,FAFMZORPAAGQFV-UHFFFAOYSA-N,CCC(=O)OC1CC2CCC1(C2(C)C)C,002756-56-1,-4.026206297,CCC(=O)OC1CC2CCC1(C)C2(C)C
1703,B-6420,2-Heptylcyclopentan-1-one,PJXHBTZLHITWFX-UHFFFAOYSA-N,CCCCCCCC1CCCC1=O,000137-03-1,-3.769437363,CCCCCCCC1CCCC1=O
1704,B-6421,3.7-Dimethyloctan-1-ol,PRNCMAKCNVRZFX-UHFFFAOYSA-N,CC(C)CCCC(C)CCO,000106-21-8,-3.393254848,CC(C)CCCC(C)CCO
1705,B-6422,ethenyl benzoate,KOZCZZVUFDCZGG-UHFFFAOYSA-N,C=COC(=O)C1=CC=CC=C1,000769-78-8,-2.622959195,C=COC(=O)c1ccccc1
1706,B-6423,2-Methylpentyl 2-methylpentanoate,UMFWRNLJDQMTFR-UHFFFAOYSA-N,CCCC(C)COC(=O)C(C)CCC,090397-38-9,-4.638967347,CCCC(C)COC(=O)C(C)CCC
1707,B-6424,methyl 2-cyclohexylacetate,IMXBRVLCKXGWSS-UHFFFAOYSA-N,COC(=O)CC1CCCCC1,014352-61-5,-2.716627055,COC(=O)CC1CCCCC1
1708,B-6425,(E)-4-methyldec-3-en-5-ol,WSTQLNQRVZNEDV-CSKARUKUSA-N,CCCCCC(/C(=C/CC)/C)O,081782-77-6,-3.431859307,CCC=C(C)C(O)CCCCC
1709,B-6426,1.1.1-TRIMETHOXYETHANE,HDPNBNXLBDFELL-UHFFFAOYSA-N,CC(OC)(OC)OC,001445-45-0,0.916357109,COC(C)(OC)OC
1710,B-6427,Nonyl acetate,GJQIMXVRFNLMTB-UHFFFAOYSA-N,CCCCCCCCCOC(=O)C,000143-13-5,-4.470857386,CCCCCCCCCOC(C)=O
1711,B-6429,1-phenylethylbenzene,BSZXAFXFTLXUFV-UHFFFAOYSA-N,CC(C1=CC=CC=C1)C2=CC=CC=C2,038888-98-1,-4.542200638,CC(c1ccccc1)c1ccccc1
1712,B-6430,(2.4a.5.8a-tetramethyl-1.2.3.4.7.8-hexahydronaphthalen-1-yl) formate,DAWDTDPJINNEJM-UHFFFAOYSA-N,CC1CCC2(C(=CCCC2(C1OC=O)C)C)C,065405-72-3,-5.031139173,CC1=CCCC2(C)C(OC=O)C(C)CCC12C
1713,B-6431,8-methylnonyl prop-2-enoate,LVGFPWDANALGOY-UHFFFAOYSA-N,CC(C)CCCCCCCOC(=O)C=C,001330-61-6,-5.199909425,C=CC(=O)OCCCCCCCC(C)C
1714,B-6432,(3.3.5-trimethylcyclohexyl) 2-methylprop-2-enoate,DABQKEQFLJIRHU-UHFFFAOYSA-N,CC1CC(CC(C1)(C)C)OC(=O)C(=C)C,007779-31-9,-4.598595618,C=C(C)C(=O)OC1CC(C)CC(C)(C)C1
1715,B-6433,(E)-4-methyldec-3-en-5-one,VPGZKDXGOZRHSB-CSKARUKUSA-N,CCCCCC(=O)/C(=C/CC)/C,811412-48-3,-3.568972521,CCC=C(C)C(=O)CCCCC
1716,B-6434,2.2.8.8-tetramethyl-octahydro-1H-2.4a-methanonapthalen-10-one,VCOCESNMLNDPLX-UHFFFAOYSA-N,CC1(CCC(=O)C2C13CCC(C3)C2(C)C)C,023787-90-8,-3.940000417,CC1(C)C2CCC3(C2)C1C(=O)CCC3(C)C
1717,B-6435,1-Chloro-2-(chloromethyl)benzene,BASMANVIUSSIIM-UHFFFAOYSA-N,C1=CC=C(C(=C1)CCl)Cl,000611-19-8,-3.206907872,ClCc1ccccc1Cl
1718,B-6436,2.6-dichloro-4-(trifluoromethyl)aniline,ITNMAZSPBLRJLU-UHFFFAOYSA-N,C1=C(C=C(C(=C1Cl)N)Cl)C(F)(F)F,024279-39-8,-3.591643696,Nc1c(Cl)cc(C(F)(F)F)cc1Cl
1719,B-6437,2-(4-methyl-1-cyclohex-3-enyl)propan-2-yl acetate,IGODOXYLBBXFDW-UHFFFAOYSA-N,CC1=CCC(CC1)C(C)(C)OC(=O)C,000080-26-2,-3.931167684,CC(=O)OC(C)(C)C1CC=C(C)CC1
1720,B-6438,(4-tert-butylcyclohexyl) acetate,MBZRJSQZCBXRGK-UHFFFAOYSA-N,CC(=O)OC1CCC(CC1)C(C)(C)C,010411-92-4,-3.699637603,CC(=O)OC1CCC(C(C)(C)C)CC1
1721,B-6439,2-ethyl-4.5-dihydro-1.3-oxazole,NYEZZYQZRQDLEH-UHFFFAOYSA-N,CCC1=NCCO1,010431-98-8,0.418758604,CCC1=NCCO1
1722,B-6440,(E)-2-methylpent-2-enal,IDEYZABHVQLHAF-GQCTYLIASA-N,CC/C=C(\C)/C=O,000623-36-9,-1.057367073,CCC=C(C)C=O
1723,B-6441,methyl 3-methylbut-2-enoate,FZIBCCGGICGWBP-UHFFFAOYSA-N,CC(=CC(=O)OC)C,000924-50-5,-1.41399965,COC(=O)C=C(C)C
1724,B-6442,(5E)-3-methylcyclotetradec-5-en-1-one,ZFGBKXBPHOUSJX-VQHVLOKHSA-N,CC1C/C=C/CCCCCCCCC(=O)C1,259854-70-1,-4.684317974,CC1CC=CCCCCCCCCC(=O)C1
1725,B-6443,3.7.11.15-Tetramethylhexadec-1-en-3-ol,KEVYVLWNCKMXJX-UHFFFAOYSA-N,CC(C)CCCC(C)CCCC(C)CCCC(C)(C=C)O,000505-32-8,-4.708648553,C=CC(C)(O)CCCC(C)CCCC(C)CCCC(C)C
1726,B-6444,1-(2.3.8.8-tetramethyl-1.3.4.5.6.7-hexahydronaphthalen-2-yl)ethanone,FVUGZKDGWGKCFE-UHFFFAOYSA-N,CC1CC2=C(CC1(C)C(=O)C)C(CCC2)(C)C,054464-57-2,-4.941787238,CC(=O)C1(C)CC2=C(CCCC2(C)C)CC1C
1727,B-6445,[(1S.4S)-1.7.7-trimethyl-6-bicyclo[2.2.1]heptanyl] prop-2-enoate,PSGCQDPCAWOCSH-BOURZNODSA-N,C[C@]12CC[C@H](C1(C)C)CC2OC(=O)C=C,005888-33-5,-4.022023663,C=CC(=O)OC1CC2CCC1(C)C2(C)C
1728,B-6446,8-methylnonyl 2-methylprop-2-enoate,COCLLEMEIJQBAG-UHFFFAOYSA-N,CC(C)CCCCCCCOC(=O)C(=C)C,029964-84-9,-6.055943155,C=C(C)C(=O)OCCCCCCCC(C)C
1729,B-6447,Cyclohexadecanone,LXJDKGYSHYYKFJ-UHFFFAOYSA-N,C1CCCCCCCC(=O)CCCCCCC1,002550-52-9,-6.263385487,O=C1CCCCCCCCCCCCCCC1
1730,B-6448,3-Methylbutyl 3-methylbutanoate,XINCECQTMHSORG-UHFFFAOYSA-N,CC(C)CCOC(=O)CC(C)C,000659-70-1,-3.55405651,CC(C)CCOC(=O)CC(C)C
1731,B-6449,1.4-dichloro-2-(1.1.2.3.3.3-hexafluoropropoxy)benzene,YNXYLOSBSOCELW-UHFFFAOYSA-N,C1=CC(=C(C=C1Cl)OC(C(C(F)(F)F)F)(F)F)Cl,1026364-35-1,-5.018459712,FC(C(F)(F)F)C(F)(F)Oc1cc(Cl)ccc1Cl
1732,B-6451,8-methylnonan-1-ol,PLLBRTOLHQQAQQ-UHFFFAOYSA-N,CC(C)CCCCCCCO,068551-08-6,-3.750728502,CC(C)CCCCCCCO
1733,B-6452,dodecyl nonanoate,PAKQQTBKJHSYEY-UHFFFAOYSA-N,CCCCCCCCCCCCOC(=O)CCCCCCCC,017671-26-0,-8.128358842,CCCCCCCCCCCCOC(=O)CCCCCCCC
1734,B-6453,(4-tert-butylcyclohexyl) prop-2-enoate,LAIJAUHBAWLPCO-UHFFFAOYSA-N,CC(C)(C)C1CCC(CC1)OC(=O)C=C,084100-23-2,-4.623901483,C=CC(=O)OC1CCC(C(C)(C)C)CC1
1735,B-6454,Hexyl hexanoate,NCDCLPBOMHPFCV-UHFFFAOYSA-N,CCCCCCOC(=O)CCCCC,006378-65-0,-5.323544662,CCCCCCOC(=O)CCCCC
1736,B-6455,2-ethylbut-3-en-1-ol,JRKCHZNIMYXNJD-UHFFFAOYSA-N,CCC(CO)C=C,053045-70-8,-0.624118226,C=CC(CC)CO
1737,B-6456,2-tert-Butyl-4.6-dimethylphenol,OPLCSTZDXXUYDU-UHFFFAOYSA-N,CC1=CC(=C(C(=C1)C(C)(C)C)O)C,001879-09-0,-3.171905789,Cc1cc(C)c(O)c(C(C)(C)C)c1
1738,B-6457,2-cyclopropyl-6-fluoro-3.4-dihydro-2H-chromene,OSQNTISRBPDELS-UHFFFAOYSA-N,C1CC1C2CCC3=C(O2)C=CC(=C3)F,099199-90-3,-2.445607592,Fc1ccc2c(c1)CCC(C1CC1)O2
1739,B-6458,2-Ethylhexyl acetate,WOYWLLHHWAMFCB-UHFFFAOYSA-N,CCCCC(CC)COC(=O)C,000103-09-3,-4.645136979,CCCCC(CC)COC(C)=O
1740,B-6459,(NE)-N-(5-methylheptan-3-ylidene)hydroxylamine,CBVWMGCJNPPAAR-CMDGGOBGSA-N,CCC(C)C/C(=N/O)/CC,022457-23-4,-2.130723275,CCC(CC(C)CC)=NO
1741,B-6460,dimethoxy-(2-methylpropyl)-propan-2-ylsilane,XFAOZKNGVLIXLC-UHFFFAOYSA-N,CC(C)C[Si](C(C)C)(OC)OC,111439-76-0,-4.024297716,CO[Si](CC(C)C)(OC)C(C)C
1742,B-6461,4-methylcyclohexan-1-one,VGVHNLRUAMRIEW-UHFFFAOYSA-N,CC1CCC(=O)CC1,000589-92-4,-0.684393381,CC1CCC(=O)CC1
1743,B-6462,4-Cyclohexyl-4-methylpentan-2-one,OAFJAALOFJVHMK-UHFFFAOYSA-N,CC(=O)CC(C)(C)C1CCCCC1,004927-39-3,-3.548149355,CC(=O)CC(C)(C)C1CCCCC1
1744,B-6463,2.6-Dimethylhept-5-enal,YGFGZTXGYTUXBA-UHFFFAOYSA-N,CC(CCC=C(C)C)C=O,000106-72-9,-2.447854825,CC(C)=CCCC(C)C=O
1745,B-6464,(E)-1-(2.6.6-trimethylcyclohex-2-en-1-yl)but-2-en-1-one,CRIGTVCBMUKRSL-FNORWQNLSA-N,C/C=C/C(=O)C1C(=CCCC1(C)C)C,024720-09-0,-3.137852152,CC=CC(=O)C1C(C)=CCCC1(C)C
1746,B-6465,7.7-dimethyl-4-methylidenebicyclo[3.1.1]heptan-3-ol,LCYXQUJDODZYIJ-UHFFFAOYSA-N,CC1(C2CC1C(=C)C(C2)O)C,005947-36-4,-2.096121367,C=C1C(O)CC2CC1C2(C)C
1747,B-6466,2-[(2-methylpropan-2-yl)oxymethyl]oxirane,SFJRUJUEMVAZLM-UHFFFAOYSA-N,CC(C)(C)OCC1CO1,007665-72-7,-0.158877867,CC(C)(C)OCC1CO1
1748,B-6467,2.6-Dimethyloct-7-en-2-yl formate,ONXALCWZXZZQSG-UHFFFAOYSA-N,CC(CCCC(C)(C)OC=O)C=C,025279-09-8,-3.711589992,C=CC(C)CCCC(C)(C)OC=O
1749,B-6468,(4Z)-cyclopentadec-4-en-1-one,JIYIHILAGIZIMD-CLFYSBASSA-N,C1CCCCCC(=O)CC/C=C\CCCC1,014595-54-1,-4.883182816,O=C1CCC=CCCCCCCCCCC1
1750,B-6469,6-methylheptyl acetate,DICUPLXUNISGAQ-UHFFFAOYSA-N,CC(C)CCCCCOC(=O)C,031565-19-2,-8.401145485,CC(=O)OCCCCCC(C)C
1751,B-6470,1.4-Bis(ethoxymethyl)cyclohexane,DEROEFJZVPSIAO-UHFFFAOYSA-N,CCOCC1CCC(CC1)COCC,054889-63-3,-2.546612912,CCOCC1CCC(COCC)CC1
1752,B-6471,2.6.6-trimethylcyclohexa-1.3-diene-1-carbaldehyde,SGAWOGXMMPSZPB-UHFFFAOYSA-N,CC1=C(C(CC=C1)(C)C)C=O,000116-26-7,-2.465004866,CC1=C(C=O)C(C)(C)CC=C1
1753,B-6473,2.6.10-Trimethylundec-9-enal,UEGBWDUVDAKUGA-UHFFFAOYSA-N,CC(CCCC(C)C=O)CCC=C(C)C,000141-13-9,-5.496885882,CC(C)=CCCC(C)CCCC(C)C=O
1754,B-6474,2-methylpentan-3-yl (E)-but-2-enoate,PVADUHPHJRAAIS-FNORWQNLSA-N,CCC(C(C)C)OC(=O)/C=C/C,1370711-06-0,-3.17418482,CC=CC(=O)OC(CC)C(C)C
1755,B-6475,2-Methyl-1-phenylpropan-2-ol,RIWRBSMFKVOJMN-UHFFFAOYSA-N,CC(C)(CC1=CC=CC=C1)O,000100-86-7,-1.045170232,CC(C)(O)Cc1ccccc1
1756,B-6477,2.2-difluoro-1.3-benzodioxole-4-carbaldehyde,NIBFJPXGNVPNHK-UHFFFAOYSA-N,C1=CC(=C2C(=C1)OC(O2)(F)F)C=O,119895-68-0,-2.155837091,O=Cc1cccc2c1OC(F)(F)O2
1757,B-6478,(E)-5.9-dimethyldec-4-enal,GUPPEAFTCCFGGC-XYOKQWHBSA-N,CC(C)CCC/C(=C/CCC=O)/C,000689-65-6,-4.090537341,CC(=CCCC=O)CCCC(C)C
1758,B-6479,3-tricyclo[5.2.1.02.6]dec-4-enyl propanoate,BALAUIYKESNHDW-UHFFFAOYSA-N,CCC(=O)OC1C=CC2C1C3CCC2C3,068912-13-0,-3.558590688,CCC(=O)OC1C=CC2C3CCC(C3)C12
1759,B-6480,1.6-dichlorohexane,OVISMSJCKCDOPU-UHFFFAOYSA-N,C(CCCCl)CCCl,002163-00-0,-3.434643969,ClCCCCCCCl
1760,B-6481,2-tert-Butyl-5-methylphenol,XOUQAVYLRNOXDO-UHFFFAOYSA-N,CC1=CC(=C(C=C1)C(C)(C)C)O,000088-60-8,-2.67267149,Cc1ccc(C(C)(C)C)c(O)c1
1761,B-6482,1-bromo-2-(2-bromophenyl)benzene,DRKHIWKXLZCAKP-UHFFFAOYSA-N,C1=CC=C(C(=C1)C2=CC=CC=C2Br)Br,013029-09-9,-6.101462095,Brc1ccccc1-c1ccccc1Br
1762,B-6483,4-propylcyclohexan-1-one,NQEDLIZOPMNZMC-UHFFFAOYSA-N,CCCC1CCC(=O)CC1,040649-36-3,-1.854568758,CCCC1CCC(=O)CC1
1763,B-6484,Dibutyl carbonate,QLVWOKQMDLQXNN-UHFFFAOYSA-N,CCCCOC(=O)OCCCC,000542-52-9,-3.140775822,CCCCOC(=O)OCCCC
1764,B-6485,2.6-Dimethyloct-7-en-2-ol,XSNQECSCDATQEL-UHFFFAOYSA-N,CC(CCCC(C)(C)O)C=C,018479-58-8,-2.221202794,C=CC(C)CCCC(C)(C)O
1765,B-6486,ethyl 2.6.6-trimethylcyclohexa-1.3-diene-1-carboxylate,KYEZYLFPHRVFBF-UHFFFAOYSA-N,CCOC(=O)C1=C(C=CCC1(C)C)C,035044-59-8,-3.39354279,CCOC(=O)C1=C(C)C=CCC1(C)C
1766,B-6487,(3E)-1-oxacyclohexadec-3-en-2-one,KHLFMZDGADSQGR-ACCUITESSA-N,C1CCCCCCOC(=O)/C=C/CCCCC1,034902-57-3,-5.397701764,O=C1C=CCCCCCCCCCCCCO1
1767,B-6488,6.10-Dimethylundecan-2-one,RBGLEUBCAJNCTR-UHFFFAOYSA-N,CC(C)CCCC(C)CCCC(=O)C,001604-34-8,-4.005171316,CC(=O)CCCC(C)CCCC(C)C
1768,B-6489,3.3.5-Trimethylcyclohexan-1-one,POSWICCRDBKBMH-UHFFFAOYSA-N,CC1CC(=O)CC(C1)(C)C,000873-94-9,-1.647137747,CC1CC(=O)CC(C)(C)C1
1769,B-6490,3-tricyclo[5.2.1.02.6]dec-4-enyl butanoate,KLEHDRXJJZQKPQ-UHFFFAOYSA-N,CCCC(=O)OC1C=CC2C1C3CCC2C3,113889-23-9,-4.282337947,CCCC(=O)OC1C=CC2C3CCC(C3)C12
1770,B-6491,prop-2-enyl 3-cyclohexylpropanoate,TWXUTZNBHUWMKJ-UHFFFAOYSA-N,C=CCOC(=O)CCC1CCCCC1,002705-87-5,-4.062446599,C=CCOC(=O)CCC1CCCCC1
1771,B-6492,2-methylbut-3-yn-2-amine,VUGCBIWQHSRQBZ-UHFFFAOYSA-N,CC(C)(C#C)N,002978-58-7,1.031676885,C#CC(C)(C)N
1772,B-6493,8-tricyclo[5.2.1.02.6]dec-3-enyl acetate,RGVQNSFGUOIKFF-UHFFFAOYSA-N,CC(=O)OC1CC2CC1C3C2C=CC3,005413-60-5,-7.283882613,CC(=O)OC1CC2CC1C1CC=CC21
1773,B-6494,3.5.5-Trimethylhexyl acetate,DGKXDLCVQSQVBC-UHFFFAOYSA-N,CC(CCOC(=O)C)CC(C)(C)C,058430-94-7,-3.989164568,CC(=O)OCCC(C)CC(C)(C)C
1774,B-6495,Decyl acetate,NUPSHWCALHZGOV-UHFFFAOYSA-N,CCCCCCCCCCOC(=O)C,000112-17-4,-4.985754833,CCCCCCCCCCOC(C)=O
1775,B-6496,2-phenyl-1.4-dioxaspiro[4.5]decane,CQFCZQWQCFNZBM-UHFFFAOYSA-N,C1CCC2(CC1)OCC(O2)C3=CC=CC=C3,057206-89-0,-7.37056084,c1ccc(C2COC3(CCCCC3)O2)cc1
1776,B-6497,4-tert-butylcyclohexan-1-one,YKFKEYKJGVSEIX-UHFFFAOYSA-N,CC(C)(C)C1CCC(=O)CC1,000098-53-3,-2.417377666,CC(C)(C)C1CCC(=O)CC1
1777,B-6498,4-pentylcyclohexan-1-one,UKLNPJDLSPMJMQ-UHFFFAOYSA-N,CCCCCC1CCC(=O)CC1,061203-83-6,-3.184635689,CCCCCC1CCC(=O)CC1
1778,B-6499,(E)-N-methoxy-1-benzofuran-3-imine,RKNNOQIDQDTNSB-NTMALXAHSA-N,CO/N=C\1/COC2=CC=CC=C12,208711-58-4,-2.543617417,CON=C1COc2ccccc21