,C_ID,Name,InChIKey,SMILES,CAS,LogS,smiles_canon
295,B-983,4-methylphenylarsonic_acid,GODGOGGXLHQPBK-UHFFFAOYSA-N,CC1=CC=C(C=C1)[As](=O)(O)O,003969-54-8,-1.366107503,Cc1ccc([As](=O)(O)O)cc1
296,B-985,2.2-diphenyl-octanedioic_acid,OMTLTRHIFJPRRL-UHFFFAOYSA-N,C1=CC=C(C=C1)C(CCCCCC(=O)O)(C2=CC=CC=C2)C(=O)O,102553-73-1,-3.496706166,O=C(O)CCCCCC(C(=O)O)(c1ccccc1)c1ccccc1
297,B-986,4-chloro-3-(4-hydroxy-phenylazo)-benzoic_acid,IDLIBMYXWLTILR-UHFFFAOYSA-N,OC(=O)C1=CC=C(Cl)C(=C1)N=NC1=CC=C(O)C=C1,022716-49-0,-4.080248361,O=C(O)c1ccc(Cl)c(N=Nc2ccc(O)cc2)c1
298,B-987,2-methylsulfanyl-7(9)H-purine,GEVCSRLIETZLTD-UHFFFAOYSA-N,CSC1=NC=C2C(=N1)N=CN2,033512-51-5,-2.562635301,CSc1ncc2[nH]cnc2n1
299,B-988,3.6-dioxasuberic_acid,CQWXKASOCUAEOW-UHFFFAOYSA-N,C(COCC(=O)O)OCC(=O)O,023243-68-7,0.431358888,O=C(O)COCCOCC(=O)O
300,B-990,[2]naphthyl-arsonic_acid,PLXOVUJYCGXIQP-UHFFFAOYSA-N,C1=CC=C2C=C(C=CC2=C1)[As](=O)(O)O,109841-47-6,-2.810509961,O=[As](O)(O)c1ccc2ccccc2c1
301,B-991,2.2-diphenyl-nonanedioic_acid,DDKJBMJRSZIKOJ-UHFFFAOYSA-N,OC(=O)CCCCCCC(C(O)=O)(C1=CC=CC=C1)C1=CC=CC=C1,111664-20-1,-3.920290484,O=C(O)CCCCCCC(C(=O)O)(c1ccccc1)c1ccccc1
302,B-992,pteridine-2.4.7-triamine,FXRCFWSUCFIHLF-UHFFFAOYSA-N,C1=C(N=C2C(=N1)C(=NC(=N2)N)N)N,014439-13-5,-2.902032308,Nc1cnc2c(N)nc(N)nc2n1
303,B-993,[1]naphthyl-arsonic_acid,XUMIJWCAWDYMOE-UHFFFAOYSA-N,C1=CC=C2C(=C1)C=CC=C2[As](=O)(O)O,005410-54-8,-2.509479966,O=[As](O)(O)c1cccc2ccccc12
304,B-994,1-cyclopropyl-6.8-difluoro-7-[3-methyl-3-(methylamino)azetidin-1-yl]-4-oxoquinoline-3-carboxylic acid,UXCMKYWTPWHUIC-UHFFFAOYSA-N,CNC1(C)CN(C1)C1=C(F)C2=C(C=C1F)C(=O)C(=CN2C1CC1)C(O)=O,132770-05-9,-5.861371893,CNC1(C)CN(c2c(F)cc3c(=O)c(C(=O)O)cn(C4CC4)c3c2F)C1
305,B-995,N.N-dicarboxymethyl_hydrazine,QQQMJWSOHKTWDZ-UHFFFAOYSA-N,C(C(=O)O)N(CC(=O)O)N,019247-05-3,-1.72345274,NN(CC(=O)O)CC(=O)O
306,B-996,methyl-(7(9)H-purin-8-yl)-amine,DNBMRENNZIQFFS-UHFFFAOYSA-N,CNC1=NC2=NC=NC=C2N1,023658-67-5,-1.826893762,CNc1nc2ncncc2[nH]1
307,B-997,3-(4-hydroxyphenylazo)benzoic_acid,MGQRCDWAEYGOIZ-UHFFFAOYSA-N,OC(=O)C1=CC=CC(=C1)N=NC1=CC=C(O)C=C1,028952-32-1,-3.850208995,O=C(O)c1cccc(N=Nc2ccc(O)cc2)c1
308,B-998,gefitinib,XGALLCVXEZPNRQ-UHFFFAOYSA-N,COC1=C(C=C2C(=C1)N=CN=C2NC3=CC(=C(C=C3)F)Cl)OCCCN4CCOCC4,184475-35-2,-5.327999806,COc1cc2ncnc(Nc3ccc(F)c(Cl)c3)c2cc1OCCCN1CCOCC1
309,B-999,(+/-)-cis-2-amino-1.9-dihydro-9-[4-(hydroxymethyl)-2-cyclopenten-1-yl]-6H-purin-6-one,XSSYCIGJYCVRRK-NKWVEPMBSA-N,NC1=NC2=C(N=CN2[C@H]2C[C@@H](CO)C=C2)C(O)=N1,118353-05-2,-2.29972691,Nc1nc(O)c2ncn(C3C=CC(CO)C3)c2n1
310,B-1000,2.2-diphenyl-heptanedioic_acid,WTVNJGKOTTWLEE-UHFFFAOYSA-N,OC(=O)CCCCC(C(O)=O)(C1=CC=CC=C1)C1=CC=CC=C1,110048-81-2,-3.430204377,O=C(O)CCCCC(C(=O)O)(c1ccccc1)c1ccccc1
311,B-1001,pteridine-4.6.7-triamine,QACWBJAETSFLJV-UHFFFAOYSA-N,C1=NC(=C2C(=N1)N=C(C(=N2)N)N)N,019167-62-5,-3.345295296,Nc1nc2ncnc(N)c2nc1N
312,B-1002,sym-(R)dibenzo-16-crown-5-oxyacetic_acid,INUSWOTZHGQZQF-UHFFFAOYSA-N,OC(=O)COC1COC2=CC=CC=C2OCCOCCOC2=C(OC1)C=CC=C2,078708-41-5,-5.096284393,O=C(O)COC1COc2ccccc2OCCOCCOc2ccccc2OC1
313,B-1003,bromophenol_blue,UDSAIICHUKSCKT-UHFFFAOYSA-N,C1=CC=C2C(=C1)C(OS2(=O)=O)(C3=CC(=C(C(=C3)Br)O)Br)C4=CC(=C(C(=C4)Br)O)Br,000115-39-9,-4.670717374,O=S1(=O)OC(c2cc(Br)c(O)c(Br)c2)(c2cc(Br)c(O)c(Br)c2)c2ccccc21
314,B-1004,hesperetin,AIONOLUJZLIMTK-AWEZNQCLSA-N,COC1=CC=C(C=C1O)[C@@H]1CC(=O)C2=C(O1)C=C(O)C=C2O,000520-33-2,-1.346786848,COc1ccc(C2CC(=O)c3c(O)cc(O)cc3O2)cc1O
315,B-1005,2.2-diphenylpentanedioic_acid,BLHHQMPYRNPUIV-UHFFFAOYSA-N,OC(=O)CCC(C(O)=O)(C1=CC=CC=C1)C1=CC=CC=C1,002997-22-0,0.942004562,O=C(O)CCC(C(=O)O)(c1ccccc1)c1ccccc1
316,B-1006,5.7-dihydroxy-2-phenyl-chromen-4-one,RTIXKCRFFJGDFG-UHFFFAOYSA-N,C1=CC=C(C=C1)C2=CC(=O)C3=C(C=C(C=C3O2)O)O,000480-40-0,-3.432973625,O=c1cc(-c2ccccc2)oc2cc(O)cc(O)c12
317,B-1009,4-(4-hydroxphenylazo)benzoic_acid,HLVCZTOFOWHIJZ-UHFFFAOYSA-N,C1=CC(=CC=C1C(=O)O)N=NC2=CC=C(C=C2)O,105299-45-4,-4.379913727,O=C(O)c1ccc(N=Nc2ccc(O)cc2)cc1
318,B-1010,thymol_blue,PRZSXZWFJHEZBJ-UHFFFAOYSA-N,CC1=CC(=C(C=C1C2(C3=CC=CC=C3S(=O)(=O)O2)C4=CC(=C(C=C4C)O)C(C)C)C(C)C)O,000076-61-9,-3.627550188,Cc1cc(O)c(C(C)C)cc1C1(c2cc(C(C)C)c(O)cc2C)OS(=O)(=O)c2ccccc21
319,B-1011,3alpha.7beta-dihydroxy-22.23-methylene-5beta-cholan-24-oic_acid,SPBCVLSZAPVLJN-PQORCGQUSA-N,[H][C@@]1(CC[C@@]2([H])[C@]3([H])[C@@H](O)C[C@]4([H])C[C@H](O)CC[C@]4(C)[C@@]3([H])CC[C@]12C)[C@H](C)C1CC1C(O)=O,093060-76-5,-4.928496765,CC(C1CC1C(=O)O)C1CCC2C3C(O)CC4CC(O)CCC4(C)C3CCC12C
320,B-1012,4-Amino-2.6-dihydroxypyrimidine,LNDZXOWGUAIUBG-UHFFFAOYSA-N,C1=C(NC(=O)NC1=O)N,000873-83-6,-2.327912393,Nc1cc(=O)[nH]c(=O)[nH]1
321,B-1013,8-aminopurine,IKZRFGGARFKJOA-UHFFFAOYSA-N,C1=C2C(=NC=N1)N=C(N2)N,020296-09-7,-2.431775345,Nc1nc2ncncc2[nH]1
322,B-1014,o-tolylarsonic_acid,DPJPCCXYYXKLSV-UHFFFAOYSA-N,CC1=CC=CC=C1[As](=O)(O)O,003969-57-1,-1.224000742,Cc1ccccc1[As](=O)(O)O
323,B-1017,pteridine-2.4.6.7-tetraamine,OFRAUYMHVBXZFA-UHFFFAOYSA-N,C12=C(N=C(N=C1N=C(C(=N2)N)N)N)N,019167-63-6,-3.397788629,Nc1nc(N)c2nc(N)c(N)nc2n1
324,B-1018,2-chloro-4-(4-hydroxy-phenylazo)-benzoic_acid,AQQKGZJPWKEZJE-UHFFFAOYSA-N,OC(=O)C1=CC=C(C=C1Cl)N=NC1=CC=C(O)C=C1,073921-76-3,-2.619808118,O=C(O)c1ccc(N=Nc2ccc(O)cc2)cc1Cl
325,B-1019,1H.8H-pteridine-2.7-dione,JZKLCHHLYGNHDU-UHFFFAOYSA-N,C1=NC(=O)NC2=C1N=CC(=O)N2,065882-62-4,-2.361471235,O=c1cnc2cnc(=O)[nH]c2[nH]1
326,B-1021,6'-methoxyl-(8S.9R)-cinchonan-9-ol-3-carboxylic_acid,SDKSKRHLYWDWGB-XXXNUIEVSA-N,[H][C@@](O)(C1=CC=NC2=CC=C(OC)C=C12)[C@]1([H])C[C@@H]2CC[N@]1C[C@@H]2C(O)=O,005650-48-6,-2.030736731,COc1ccc2nccc(C(O)C3CC4CCN3CC4C(=O)O)c2c1
327,B-1022,YG,HPYDSVWYXXKHRD-VIFPVBQESA-N,[H][C@](N)(CC1=CC=C(O)C=C1)C(=O)NCC(O)=O,000673-08-5,-1.098266548,NC(Cc1ccc(O)cc1)C(=O)NCC(=O)O
328,B-1024,Val-Val,KRNYOVHEKOBTEF-YUMQZZPRSA-N,[H][C@](N)(C(C)C)C(=O)N[C@@]([H])(C(C)C)C(O)=O,003918-94-3,-0.405597435,CC(C)C(N)C(=O)NC(C(=O)O)C(C)C
329,B-1025,olaparib,FDLYAMZZIXQODN-UHFFFAOYSA-N,C1CC1C(=O)N2CCN(CC2)C(=O)C3=C(C=CC(=C3)CC4=NNC(=O)C5=CC=CC=C54)F,763113-22-0,-1.8745318,O=C(c1cc(Cc2n[nH]c(=O)c3ccccc23)ccc1F)N1CCN(C(=O)C2CC2)CC1
330,B-1026,N-Gly-Tyr,XBGGUPMXALFZOT-VIFPVBQESA-N,[H][C@@](CC1=CC=C(O)C=C1)(NC(=O)CN)C(O)=O,000658-79-7,-0.73258156,NCC(=O)NC(Cc1ccc(O)cc1)C(=O)O
331,B-1028,(1E.4Z.6E)-5-hydroxy-1.7-bis(4-hydroxy-3-methoxyphenyl)hepta-1.4.6-trien-3-one,ZIUSSTSXXLLKKK-KOBPDPAPSA-N,COC1=C(C=CC(=C1)/C=C/C(=C/C(=O)/C=C/C2=CC(=C(C=C2)O)OC)/O)O,000458-37-7,-5.81811509,COc1cc(C=CC(=O)C=C(O)C=Cc2ccc(O)c(OC)c2)ccc1O
332,B-1029,(+/-)-3-hydroxy-1-methyl-indoline-5.6-dione-5-semicarbazone,XSXCZNVKFKNLPR-SDQBBNPISA-N,CN1CC(C2=C/C(=N/NC(=O)N)/C(=O)C=C21)O,000069-81-8,-2.674365046,CN1CC(O)C2=CC(=NNC(N)=O)C(=O)C=C21
333,B-1030,m-tolylarsonic_acid,JEMCDGFTCLWRHL-UHFFFAOYSA-N,CC1=CC(=CC=C1)[As](=O)(O)O,005410-37-7,-0.988237478,Cc1cccc([As](=O)(O)O)c1
334,B-1032,3.9-dihydro-3-[(2-hydroxyethoxy)methyl]-9-oxo-5H-imidazol[1.2-a]purine,DZPWEUBONKZVQT-UHFFFAOYSA-N,OCCOCN1C=NC2=C1N=C1NC=CN1C2=O,134287-59-5,-2.512861642,O=c1c2ncn(COCCO)c2nc2[nH]ccn12
335,B-1033,N-acetyl-L-tyrosine,CAHKINHBCWCHCF-JTQLQIEISA-N,[H][C@@](CC1=CC=C(O)C=C1)(NC(C)=O)C(O)=O,000537-55-3,0.007275243,CC(=O)NC(Cc1ccc(O)cc1)C(=O)O
336,B-1034,N-(1-deoxy-beta-D-fructopyranos-1-yl)-glycine,NOUQGOYNEGWDCZ-MJUYGTRASA-N,O[C@@H]1CO[C@](O)(CNCC(O)=O)[C@@H](O)[C@@H]1O,060644-20-4,0.654250784,O=C(O)CNCC1(O)OCC(O)C(O)C1O
337,B-1035,2-[[8-[bis(2-hydroxyethyl)amino]-2.6-di(piperidin-1-yl)pyrimido[5.4-d]pyrimidin-4-yl]-(2-hydroxyethyl)amino]ethanol,YCWBGLOEGNFGDM-UHFFFAOYSA-N,C1CCN(CC1)C2=NC3=C(C(=N2)N(CCO)CCO)N=C(N=C3N(CCO)CCO)N4CCCCC4,016908-39-7,-5.221533019,OCCN(CCO)c1nc(N2CCCCC2)nc2c(N(CCO)CCO)nc(N3CCCCC3)nc12
338,B-1036,6-tert-butyl-3.9-dihydro-3-[(2-hydroxyethoxy)methyl]-9-oxo-5H-imidazol[1.2-a]purine,JHDQNNOPTORNCV-UHFFFAOYSA-N,CC(C)(C)C1=CN2C(N1)=NC1=C(N=CN1COCCO)C2=O,157891-99-1,-2.511449265,CC(C)(C)c1cn2c(=O)c3ncn(COCCO)c3nc2[nH]1
339,B-1038,myricetin,IKMDFBPHZNJCSN-UHFFFAOYSA-N,C1=C(C=C(C(=C1O)O)O)C2=C(C(=O)C3=C(C=C(C=C3O2)O)O)O,000529-44-2,-5.204119983,O=c1c(O)c(-c2cc(O)c(O)c(O)c2)oc2cc(O)cc(O)c12
340,B-1039,6-methylpteridin-4(3H)-one,JQDJTEVUGHCYPQ-UHFFFAOYSA-N,CC1=CNC2=NC=NC(=O)C2=N1,016041-24-0,-1.649295757,Cc1c[nH]c2ncnc(=O)c-2n1
341,B-1040,gemcitabine,SDUQYLNIPVEERB-QPPQHZFASA-N,NC1=NC(=O)N(C=C1)[C@@H]1O[C@H](CO)[C@@H](O)C1(F)F,095058-81-4,-0.544936838,Nc1ccn(C2OC(CO)C(O)C2(F)F)c(=O)n1
342,B-1041,6-(2-naphthyl)-3.9-dihydro-3-[(2-hydroxyethoxy)methyl]-9-oxo-5H-imidazol[1.2-a]purine,SPZKYQJTVQXDOG-UHFFFAOYSA-N,OCCOCN1C=NC2=C1N=C1NC(=CN1C2=O)C1=CC2=C(C=CC=C2)C=C1,244272-56-8,-3.779892205,O=c1c2ncn(COCCO)c2nc2[nH]c(-c3ccc4ccccc4c3)cn12
343,B-1042,7-methyl-3H-pteridin-4-one,ZFKCYEYVBSXGLU-UHFFFAOYSA-N,CC1=CN=C2C(=NC=NC2=O)N1,034244-80-9,-1.562145581,Cc1cnc2c(=O)ncnc-2[nH]1
344,B-1043,arbutin,BJRNKVDFDLYUGJ-RMPHRYRLSA-N,OC[C@H]1O[C@@H](OC2=CC=C(O)C=C2)[C@H](O)[C@@H](O)[C@@H]1O,000497-76-7,-0.754495308,OCC1OC(Oc2ccc(O)cc2)C(O)C(O)C1O
345,B-1044,3.9-dihydro-3-<(2-hydroxyethoxy)methyl>-9-oxo-6-phenyl-5H-imidazo<1.2-a>purine,HZPVMWKUUDHLAT-UHFFFAOYSA-N,C1=CC=C(C=C1)C2=CN3C(=O)C4=C(N=C3N2)N(C=N4)COCCO,157892-00-7,-3.623416458,O=c1c2ncn(COCCO)c2nc2[nH]c(-c3ccccc3)cn12
346,B-1047,7(9)H-purine-2.6.8-triamine,FNUSUXSXQXLDBC-UHFFFAOYSA-N,C12=C(N=C(N=C1N=C(N2)N)N)N,018802-62-5,-1.518926981,Nc1nc(N)c2[nH]c(N)nc2n1
347,B-1048,L-tyrosyl-L-leucine,AUEJLPRZGVVDNU-STQMWFEESA-N,[H][C@](N)(CC1=CC=C(O)C=C1)C(=O)N[C@@]([H])(CC(C)C)C(O)=O,017355-10-1,-2.070925507,CC(C)CC(NC(=O)C(N)Cc1ccc(O)cc1)C(=O)O
348,B-1049,H-Leu-Tyr-OH,LHSGPCFBGJHPCY-STQMWFEESA-N,[H][C@](N)(CC(C)C)C(=O)N[C@@]([H])(CC1=CC=C(O)C=C1)C(O)=O,000968-21-8,-1.576770913,CC(C)CC(N)C(=O)NC(Cc1ccc(O)cc1)C(=O)O
349,B-1051,tyrosylglycylglycine,HIINQLBHPIQYHN-JTQLQIEISA-N,[H][C@](N)(CC1=CC=C(O)C=C1)C(=O)NCC(=O)NCC(O)=O,021778-69-8,-1.470256093,NC(Cc1ccc(O)cc1)C(=O)NCC(=O)NCC(=O)O
350,B-1052,L-tryptophyl-Glycine,UYKREHOKELZSPB-JTQLQIEISA-N,[H][C@](N)(CC1=CNC2=C1C=CC=C2)C(=O)NCC(O)=O,007360-09-0,-0.846563228,NC(Cc1c[nH]c2ccccc12)C(=O)NCC(=O)O
351,B-1053,xanthosine,UBORTCNDUKBEOP-UUOKFMHZSA-N,OC[C@H]1O[C@H]([C@H](O)[C@@H]1O)N1C=NC2=C1NC(=O)NC2=O,000146-80-5,-2.455843778,O=c1[nH]c(=O)c2ncn(C3OC(CO)C(O)C3O)c2[nH]1
352,B-1054,4-amino-1-hydroxybutylidenebisphosphonic acid,OGSPWJRAVKPPFI-UHFFFAOYSA-N,NCCCC(O)(P(O)(O)=O)P(O)(O)=O,066376-36-1,-1.511969672,NCCCC(O)(P(=O)(O)O)P(=O)(O)O
353,B-1055,1-cyclopropyl-6-fluoro-7-[3-methyl-3-(methylamino)azetidin-1-yl]-4-oxoquinoline-3-carboxylic acid,NYJWUOYWVKEHPC-UHFFFAOYSA-N,CNC1(C)CN(C1)C1=CC2=C(C=C1F)C(=O)C(=CN2C1CC1)C(O)=O,132770-06-0,-5.6931916,CNC1(C)CN(c2cc3c(cc2F)c(=O)c(C(=O)O)cn3C2CC2)C1
354,B-1058,N-glycyl-L-tryptophan,AJHCSUXXECOXOY-NSHDSACASA-N,[H][C@@](CC1=CNC2=C1C=CC=C2)(NC(=O)CN)C(O)=O,002390-74-1,-1.88562725,NCC(=O)NC(Cc1c[nH]c2ccccc12)C(=O)O
355,B-1059,tetraglycine,QMOQBVOBWVNSNO-UHFFFAOYSA-N,NCC(=O)NCC(=O)NCC(=O)NCC(O)=O,000637-84-3,-1.671169315,NCC(=O)NCC(=O)NCC(=O)NCC(=O)O
356,B-1060,lapatanib,BCFGMOOMADDAQU-UHFFFAOYSA-N,CS(=O)(=O)CCNCC1=CC=C(O1)C2=CC3=C(C=C2)N=CN=C3NC4=CC(=C(C=C4)OCC5=CC(=CC=C5)F)Cl,231277-92-2,-4.919128172,CS(=O)(=O)CCNCc1ccc(-c2ccc3ncnc(Nc4ccc(OCc5cccc(F)c5)c(Cl)c4)c3c2)o1
357,B-1061,puerarin,HKEAFJYKMMKDOR-VPRICQMDSA-N,OC[C@H]1O[C@H]([C@H](O)[C@@H](O)[C@@H]1O)C1=C(O)C=CC2=C1OC=C(C2=O)C1=CC=C(O)C=C1,003681-99-0,-2.161612136,O=c1c(-c2ccc(O)cc2)coc2c(C3OC(CO)C(O)C(O)C3O)c(O)ccc12
358,B-1062,pentaglycine,MXHCPCSDRGLRER-UHFFFAOYSA-N,C(C(=O)NCC(=O)NCC(=O)NCC(=O)NCC(=O)O)N,007093-67-6,-2.305745352,NCC(=O)NCC(=O)NCC(=O)NCC(=O)NCC(=O)O
359,B-1064,rutin,IKGXIBQEEMLURG-NVPNHPEKSA-N,C[C@@H]1O[C@@H](OC[C@H]2O[C@@H](OC3=C(OC4=C(C3=O)C(O)=CC(O)=C4)C3=CC(O)=C(O)C=C3)[C@H](O)[C@@H](O)[C@@H]2O)[C@H](O)[C@H](O)[C@H]1O,000153-18-4,-3.484674168,CC1OC(OCC2OC(Oc3c(-c4ccc(O)c(O)c4)oc4cc(O)cc(O)c4c3=O)C(O)C(O)C2O)C(O)C(O)C1O
360,B-1066,hexaglycine,XJFPXLWGZWAWRQ-UHFFFAOYSA-N,C(C(=O)NCC(=O)NCC(=O)NCC(=O)NCC(=O)NCC(=O)O)N,003887-13-6,-2.778545555,NCC(=O)NCC(=O)NCC(=O)NCC(=O)NCC(=O)NCC(=O)O
361,B-1067,benzoylamide_deferoxamine,PIJVCJMTEGQNBC-UHFFFAOYSA-N,CC(=O)N(O)CCCCCNC(=O)CCC(=O)N(O)CCCCCNC(=O)CCC(=O)N(O)CCCCCNC(=O)C1=CC=CC=C1,105185-40-8,-4.866474542,CC(=O)N(O)CCCCCNC(=O)CCC(=O)N(O)CCCCCNC(=O)CCC(=O)N(O)CCCCCNC(=O)c1ccccc1
362,B-1068,hesperidin,QUQPHWDTPGMPEX-QJBIFVCTSA-N,COC1=C(O)C=C(C=C1)[C@@H]1CC(=O)C2=C(O)C=C(O[C@@H]3O[C@H](CO[C@@H]4O[C@@H](C)[C@H](O)[C@@H](O)[C@H]4O)[C@@H](O)[C@H](O)[C@H]3O)C=C2O1,000520-26-3,-5.013413044,COc1ccc(C2CC(=O)c3c(O)cc(OC4OC(COC5OC(C)C(O)C(O)C5O)C(O)C(O)C4O)cc3O2)cc1O
363,B-1069,diosmin,GZSOSUNBTXMUFQ-YFAPSIMESA-N,COC1=CC=C(C=C1O)C1=CC(=O)C2=C(O1)C=C(O[C@@H]1O[C@H](CO[C@@H]3O[C@@H](C)[C@H](O)[C@@H](O)[C@H]3O)[C@@H](O)[C@H](O)[C@H]1O)C=C2O,000520-27-4,-5.705117162,COc1ccc(-c2cc(=O)c3c(O)cc(OC4OC(COC5OC(C)C(O)C(O)C5O)C(O)C(O)C4O)cc3o2)cc1O
364,B-1070,N-Succinyl-desferri-ferrioxyamin_B,CPEIGBDIJPZAEK-UHFFFAOYSA-N,CC(=O)N(CCCCCNC(=O)CCC(=O)N(CCCCCNC(=O)CCC(=O)N(CCCCCNC(=O)CCC(=O)O)O)O)O,084211-47-2,-3.596883493,CC(=O)N(O)CCCCCNC(=O)CCC(=O)N(O)CCCCCNC(=O)CCC(=O)N(O)CCCCCNC(=O)CCC(=O)O
365,B-1071,3-methylcinnamic_acid,JZINNAKNHHQBOS-AATRIKPKSA-N,CC1=CC(=CC=C1)/C=C/C(=O)O,003029-79-6,-3.519822638,Cc1cccc(C=CC(=O)O)c1
366,B-1104,CYCLOPROPANE,LVZWSLJZHVFIQJ-UHFFFAOYSA-N,C1CC1,000075-19-4,-2.043150755,C1CC1
367,B-1126,HFE-7500,HHBBIOLEJRWIGU-UHFFFAOYSA-N,CCOC(C(C(F)(F)F)(C(F)(F)F)F)(C(C(C(F)(F)F)(F)F)(F)F)F,297730-93-9,-7.838974955,CCOC(F)(C(F)(F)C(F)(F)C(F)(F)F)C(F)(C(F)(F)F)C(F)(F)F
368,B-1161,1.1.2.2.3.3.4.4.5.6.7.8-dodecadeuterionaphthalene,CXWXQJXEFPUFDZ-DTOGOBKCSA-N,[2H]C1=C(C(=C2C(=C1[2H])C(C(C(C2([2H])[2H])([2H])[2H])([2H])[2H])([2H])[2H])[2H])[2H],075840-23-2,-0.858176138,[H]c1c([H])c([H])c2c(c1[H])C([H])([H])C([H])([H])C([H])([H])C2([H])[H]
369,B-1172,METHYL-T-AMYL_ETHER,HVZJRWJGKQPSFL-UHFFFAOYSA-N,CCC(C)(C)OC,000994-05-8,-0.979982121,CCC(C)(C)OC
370,B-1211,4-(TRIFLUOROMETHYL)CHLOROBENZENE,QULYNCCPRWKEMF-UHFFFAOYSA-N,C1=CC(=CC=C1C(F)(F)F)Cl,000098-56-6,-3.794223548,FC(F)(F)c1ccc(Cl)cc1
371,B-1252,DIISOPROPYLNAPHTHALENE,GFZWCYSEPXDDRI-UHFFFAOYSA-N,CC(C)C1=CC=CC2=C1C=CC=C2C(C)C,038640-62-9,-6.285639128,CC(C)c1cccc2c(C(C)C)cccc12
372,B-1275,METHOXYFLURANE,RFKMCNOHBTXSMU-UHFFFAOYSA-N,COC(C(Cl)Cl)(F)F,000076-38-0,-0.765618539,COC(F)(F)C(Cl)Cl
373,B-1295,QUINOLINE. 4.7-DICHLORO-,HXEWMTXDBOQQKO-UHFFFAOYSA-N,C1=CC2=C(C=CN=C2C=C1Cl)Cl,000086-98-6,-2.802620253,Clc1ccc2c(Cl)ccnc2c1
374,B-1301,TETRACHLORODIBENZO-P-DIOXINS,VPTDIAYLYJBYQG-UHFFFAOYSA-N,C1=C(C=C(C2=C1OC3=CC(=C(C=C3O2)Cl)Cl)Cl)Cl,041903-57-5,-8.963760852,Clc1cc(Cl)c2c(c1)Oc1cc(Cl)c(Cl)cc1O2
375,B-1461,METHYLTRIS(TRIMETHYLSILOXY)SILANE,RGMZNZABJYWAEC-UHFFFAOYSA-N,C[Si](C)(C)O[Si](C)(O[Si](C)(C)C)O[Si](C)(C)C,017928-28-8,-8.215865471,C[Si](C)(C)O[Si](C)(O[Si](C)(C)C)O[Si](C)(C)C
376,B-1464,2-(dimethylamino)-2-methylpropan-1-ol,XRIBIDPMFSLGFS-UHFFFAOYSA-N,CC(C)(CO)N(C)C,007005-47-2,0.931109446,CN(C)C(C)(C)CO
377,B-1473,N.N-DIME-N-G-PHENYLPROPYLAMINE,NMXXDRKTOJAAQS-UHFFFAOYSA-N,CN(C)CCCC1=CC=CC=C1,001199-99-1,-1.656577291,CN(C)CCCc1ccccc1
378,B-1479,1-Propanamine. 3-chloro-N.N-dimethyl-,NYYRRBOMNHUCLB-UHFFFAOYSA-N,CN(C)CCCCl,000109-54-6,-0.198478563,CN(C)CCCCl
379,B-1481,Isobutyltriethoxysilane,ALVYUZIFSCKIFP-UHFFFAOYSA-N,CCO[Si](CC(C)C)(OCC)OCC,017980-47-1,-3.408693434,CCO[Si](CC(C)C)(OCC)OCC
380,B-1494,N.N-DIETHYLTHIOUREA,FLVIGYVXZHLUHP-UHFFFAOYSA-N,CCNC(=NCC)S,000105-55-5,-0.498047862,CCN=C(S)NCC
381,B-1504,DEMEROL,XADCESSVHJOZHK-UHFFFAOYSA-N,C2(C(=O)OCC)(CCN(CC2)C)C1CCCCC1,000057-42-1,-1.885438485,CCOC(=O)C1(C2CCCCC2)CCN(C)CC1
382,B-1508,DE 71,WHPVYXDFIXRKLN-UHFFFAOYSA-N,C1=CC(=C(C=C1Br)Br)OC2=CC(=C(C=C2Br)Br)Br,032534-81-9,-8.371598855,Brc1ccc(Oc2cc(Br)c(Br)cc2Br)c(Br)c1
383,B-1538,2(3H)-Benzoxazolethione,FLFWJIBUZQARMD-UHFFFAOYSA-N,C1=CC=C2C(=C1)N=C(O2)S,002382-96-9,-2.179494341,Sc1nc2ccccc2o1
384,B-1547,HEXAMETHYLCYCLOTRISILOXANE,HTDJPCNNEPUOOQ-UHFFFAOYSA-N,C[Si]1(O[Si](O[Si](O1)(C)C)(C)C)C,000541-05-9,-5.154146856,C[Si]1(C)O[Si](C)(C)O[Si](C)(C)O1
385,B-1557,THIOACETAMIDE,YUKQRDCYNOVPGJ-UHFFFAOYSA-N,CC(=N)S,000062-55-5,0.336374216,CC(=N)S
386,B-1572,P-METHYLACETOPHENONE,GNKZMNRKLCTJAY-UHFFFAOYSA-N,CC1=CC=C(C=C1)C(=O)C,000122-00-9,-2.557144848,CC(=O)c1ccc(C)cc1
387,B-1589,2.5-DIMETHYLANILINE,VOWZNBNDMFLQGM-UHFFFAOYSA-N,CC1=CC(=C(C=C1)C)N,000095-78-3,-1.335242921,Cc1ccc(C)c(N)c1
388,B-1605,4-FLUOROANILINE,KRZCOLNOCZKSDF-UHFFFAOYSA-N,C1=CC(=CC=C1N)F,000371-40-4,-0.527278293,Nc1ccc(F)cc1
389,B-1616,Perfluorooctanoic Acid,SNGREZUHAYWORS-UHFFFAOYSA-N,C(=O)(C(C(C(C(C(C(C(F)(F)F)(F)F)(F)F)(F)F)(F)F)(F)F)(F)F)O,000335-67-1,-7.639350161,O=C(O)C(F)(F)C(F)(F)C(F)(F)C(F)(F)C(F)(F)C(F)(F)C(F)(F)F
390,B-1628,lactic acid dodecylester,QQQMUBLXDAFBRH-UHFFFAOYSA-N,CCCCCCCCCCCCOC(=O)C(C)O,006283-92-7,-1.407971136,CCCCCCCCCCCCOC(=O)C(C)O
391,B-1631,6-2 FTOH,GRJRKPMIRMSBNK-UHFFFAOYSA-N,C(CO)C(C(C(C(C(C(F)(F)F)(F)F)(F)F)(F)F)(F)F)(F)F,000647-42-7,-4.291719662,OCCC(F)(F)C(F)(F)C(F)(F)C(F)(F)C(F)(F)C(F)(F)F
392,B-1637,NORNICOTINE,MYKUKUCHPMASKF-UHFFFAOYSA-N,C1CC(NC1)C2=CN=CC=C2,000494-97-3,0.829122493,c1cncc(C2CCCN2)c1
393,B-1643,N-NONYLPHENOL,JSFITYFUKSFPBZ-UHFFFAOYSA-N,CC(C)CCCCCCC1=CC=C(C=C1)O,084852-15-3,-1.644162759,CC(C)CCCCCCc1ccc(O)cc1
394,B-1650,1.4-Naphthalenedione. 5-hydroxy-2-methyl-,VCMMXZQDRFWYSE-UHFFFAOYSA-N,CC1=CC(=O)C2=C(C1=O)C=CC=C2O,000481-42-5,-2.797452209,CC1=CC(=O)c2c(O)cccc2C1=O
395,B-1666,1.4-DIHYDROXY-9.10-ANTHRACENEDIONE,GUEIZVNYDFNHJU-UHFFFAOYSA-N,C1=CC=C2C(=C1)C(=O)C3=C(C=CC(=C3C2=O)O)O,000081-64-1,-6.397885775,O=C1c2ccccc2C(=O)c2c(O)ccc(O)c21
396,B-1679,Tetraethoxysilane,BOTDANWDWHJENH-UHFFFAOYSA-N,CCO[Si](OCC)(OCC)OCC,000078-10-4,-2.142660555,CCO[Si](OCC)(OCC)OCC
397,B-1686,HEXAMETHYLENETETRAMINE,VKYKSIONXSXAKP-UHFFFAOYSA-N,C1N2CN3CN1CN(C2)C3,000100-97-0,0.505529305,C1N2CN3CN1CN(C2)C3
398,B-1688,2-METHOXY-4-(1-PROPENYL)PHENOL,BJIOGJUNALELMI-ONEGZZNKSA-N,C/C=C/C1=CC(=C(C=C1)O)OC,000097-54-1,-2.306914582,CC=Cc1ccc(O)c(OC)c1
399,B-1700,N-tert-Butyl-2-benzothiazolesulfenamide,IUJLOAKJZQBENM-UHFFFAOYSA-N,CC(C)(C)NSC1=NC2=CC=CC=C2S1,000095-31-8,-5.900130342,CC(C)(C)NSc1nc2ccccc2s1
400,B-1702,4-DIMETHYLAMINOPYRIDINE,VHYFNPMBLIVWCW-UHFFFAOYSA-N,CN(C)C1=CC=NC=C1,001122-58-3,-0.206150982,CN(C)c1ccncc1
401,B-1704,Acetic acid. tribromo-,QIONYIKHPASLHO-UHFFFAOYSA-N,C(=O)(C(Br)(Br)Br)O,000075-96-7,-0.171346097,O=C(O)C(Br)(Br)Br
402,B-1721,TETRAKIS(TRIMETHYLSILOXY)SILANE,VNRWTCZXQWOWIG-UHFFFAOYSA-N,C[Si](C)(C)O[Si](O[Si](C)(C)C)(O[Si](C)(C)C)O[Si](C)(C)C,003555-47-3,-9.406314544,C[Si](C)(C)O[Si](O[Si](C)(C)C)(O[Si](C)(C)C)O[Si](C)(C)C
403,B-1731,ETHYLENETHIOUREA,PDQAZBWRQCGBEV-UHFFFAOYSA-N,C1CN=C(N1)S,000096-45-7,-0.571487808,SC1=NCCN1
404,B-1737,MINOCYCLINE,DABJLFKRJWUXMV-UHFFFAOYSA-N,CC(C)(C#N)C1=CC=C(C=C1)Br,101184-73-0,-0.634438513,CC(C)(C#N)c1ccc(Br)cc1
405,B-1747,2-IODOBENZOIC ACID,CJNZAXGUTKBIHP-UHFFFAOYSA-N,C1(C(=O)O)C(I)CCCC1,000088-67-5,-2.730785778,O=C(O)C1CCCCC1I
406,B-1759,Tris(trimethylsiloxy)phenylsilane,LINXHFKHZLOLEI-UHFFFAOYSA-N,C[Si](C)(C)O[Si](C1=CC=CC=C1)(O[Si](C)(C)C)O[Si](C)(C)C,002116-84-9,-7.750571314,C[Si](C)(C)O[Si](O[Si](C)(C)C)(O[Si](C)(C)C)c1ccccc1
407,B-1772,4-METHYL-2-OXETANONE,GSCLMSFRWBPUSK-UHFFFAOYSA-N,CC1CC(=O)O1,003068-88-0,-0.750261277,CC1CC(=O)O1
408,B-1788,2H-BENZOTRIAZOLE,QRUDEWIWKLJBPS-UHFFFAOYSA-N,C1=CC2=NNN=C2C=C1,000095-14-7,-0.779355952,c1ccc2n[nH]nc2c1
409,B-1799,M-METHOXYPHENOL,ASHGTJPOSUFTGB-UHFFFAOYSA-N,COC1=CC=CC(=C1)O,000150-19-6,-2.397555352,COc1cccc(O)c1
410,B-1801,3-IODOBENZOIC ACID,KVBWBCRPWVKFQT-UHFFFAOYSA-N,O=C(C1CC(I)CCC1)O,000618-51-9,-3.270635062,O=C(O)C1CCCC(I)C1
411,B-1803,2H-1-Benzopyran-2-one. 3.4-dihydro-,VMUXSMXIQBNMGZ-UHFFFAOYSA-N,C1CC(=O)OC2=CC=CC=C21,000119-84-6,-1.693609715,O=C1CCc2ccccc2O1
412,B-1804,Propane.1.2-dinitrate,PSXCGTLGGVDWFU-UHFFFAOYSA-N,CC(CO[N+](=O)[O-])O[N+](=O)[O-],006423-43-4,-1.318885164,CC(CO[N+](=O)[O-])O[N+](=O)[O-]
413,B-1821,Hordenine,KUBCEEMXQZUPDQ-UHFFFAOYSA-N,CN(C)CCC1=CC=C(C=C1)O,000539-15-1,-1.373017146,CN(C)CCc1ccc(O)cc1
414,B-1837,CAMPHORQUINONE,VNQXSTWCDUXYEZ-UHFFFAOYSA-N,CC1(C2CCC1(C(=O)C2=O)C)C,000465-29-2,-1.990234357,CC12CCC(C(=O)C1=O)C2(C)C