,C_ID,Name,InChIKey,SMILES,CAS,LogS,smiles_canon
4643,B-10076,7-chloro-5-phenyl-1.3.4.5-tetrahydro-1.4-benzodiazepin-2-one,GYQOYYFIHYKFEO-UHFFFAOYSA-N,O=C1CNC(C2C(N1)CCC(C2)Cl)C1CCCCC1,001824-69-7,-3.509908507,O=C1CNC(C2CCCCC2)C2CC(Cl)CCC2N1
4644,B-10077,4-[(1S)-1-hydroxy-2-methylaminoethyl]benzene-1.2-diol,UCTWMZQNUQWSLP-SECBINFHSA-N,CNC[C@H](C1CCC(C(C1)O)O)O,000150-05-0,0.737057937,CNCC(O)C1CCC(O)C(O)C1
4645,B-10079,(1R.9R.10R)-17-[2-(4-methylsulfanylphenyl)ethyl]-17-azatetracyclo[7.5.3.01.10.02.7]heptadeca-2(7).3.5-trien-4-ol,ZDGVLDKCQRCCKI-ICDZXHCJSA-N,CSC1CCC(CC1)CCN1CC[C@@]23[C@H]([C@H]1CC1C3CC(CC1)O)CCCC2,063868-02-0,-5.590721567,CSC1CCC(CCN2CCC34CCCCC3C2CC2CCC(O)CC24)CC1
4646,B-10080,tricyclo[9.4.0.03.8]pentadeca-1(15).3.5.7.11.13-hexaene-2-carboxamide,APBVLLORZMAWKI-UHFFFAOYSA-N,NC(=O)C1C2CCCCC2CCC2C1CCCC2,007199-29-3,-4.638029222,NC(=O)C1C2CCCCC2CCC2CCCCC21
4647,B-10081,2.2-bis(4-chlorophenoxy)acetic acid,ZKNSZZXBPSICFK-UHFFFAOYSA-N,OC(=O)C(OC1CCC(CC1)Cl)OC1CCC(CC1)Cl,029815-94-9,-4.751431695,O=C(O)C(OC1CCC(Cl)CC1)OC1CCC(Cl)CC1
4648,B-10082,3-(2-methyl-5-propan-2-ylphenoxy)propane-1.2-diol,MOTVHOCKVVIRIG-UHFFFAOYSA-N,OCC(COC1CC(CCC1C)C(C)C)O,064049-40-7,-3.282643412,CC(C)C1CCC(C)C(OCC(O)CO)C1
4649,B-10083,bis(4-dimethylaminophenyl)-phenylmethanol,LXHOGENDFZKPSF-UHFFFAOYSA-N,CN(C1CCC(CC1)C(C1CCC(CC1)N(C)C)(C1CCCCC1)O)C,000510-13-4,-3.062549395,CN(C)C1CCC(C(O)(C2CCCCC2)C2CCC(N(C)C)CC2)CC1
4650,B-10084,8-hexyl-1.3-dimethyl-7H-purine-2.6-dione,SHZWWHZISZGGHB-UHFFFAOYSA-N,CCCCCCC1[NH]C2C(N1)N(C)C(=O)N(C2=O)C,005429-37-8,-3.35768684,CCCCCCC1NC2C(=O)N(C)C(=O)N(C)C2N1
4651,B-10086,(8-methyl-3.8-diazabicyclo[3.2.1]octan-3-yl)-(2-nitrophenyl)methanone,JNXAZWXNARKBOA-UHFFFAOYSA-N,CN1C2CCC1CN(C2)C(=O)C1CCCCC1[N+](=O)[O-],057269-22-4,-2.325875495,CN1C2CCC1CN(C(=O)C1CCCCC1[N+](=O)[O-])C2
4652,B-10087,3-(4-methoxyphenoxy)-2-methylpropane-1.2-diol,WZKXTRAAYUOPSE-UHFFFAOYSA-N,OCC(COC1CCC(CC1)OC)(O)C,064049-43-0,-1.597672678,COC1CCC(OCC(C)(O)CO)CC1
4653,B-10089,[2-[(4-chlorophenyl)carbamoyl]-4.6-diiodophenyl] acetate,ICKMASVVMCGZLR-UHFFFAOYSA-N,CC(=O)OC1C(I)CC(CC1C(=O)NC1CCC(CC1)Cl)I,014437-41-3,-7.824530477,CC(=O)OC1C(I)CC(I)CC1C(=O)NC1CCC(Cl)CC1
4654,B-10090,5-(3-dimethylaminopropyl)-11H-benzo[b][1.4]benzodiazepin-6-one,TXFLRWLXYPVPIQ-UHFFFAOYSA-N,CN(CCCN1C(=O)C2CCCCC2[NH]C2C1CCCC2)C,004231-96-3,-4.641729997,CN(C)CCCN1C(=O)C2CCCCC2NC2CCCCC21
4655,B-10091,propan-2-yl 2-[2-(3-dimethylaminopropoxy)-2-oxoethoxy]-6-methyl-3-propan-2-ylbenzoate,JTNZXOJENVIQTO-UHFFFAOYSA-N,CN(CCCOC(=O)COC1C(CCC(C1C(=O)OC(C)C)C)C(C)C)C,053206-93-2,-4.844408529,CC(C)OC(=O)C1C(C)CCC(C(C)C)C1OCC(=O)OCCCN(C)C
4656,B-10092,2-[1-(4-chlorophenyl)-2.5-dimethylpyrrol-3-yl]acetic acid,SJCRQMUYEQHNTC-UHFFFAOYSA-N,OC(=O)CC1CC(N(C1C)C1CCC(CC1)Cl)C,042779-82-8,-3.988816938,CC1CC(CC(=O)O)C(C)N1C1CCC(Cl)CC1
4657,B-10093,1-(2-methylphenoxy)propan-2-yl carbamate,QFQQCSOIKYRSMA-UHFFFAOYSA-N,CC(OC(=O)N)COC1CCCCC1C,063716-26-7,-2.594743457,CC(COC1CCCCC1C)OC(N)=O
4658,B-10094,3-(2-chloro-6-methylphenoxy)propane-1.2-diol,MEVXADNQQUNQKB-UHFFFAOYSA-N,OCC(COC1C(C)CCCC1Cl)O,007149-83-9,-2.533007018,CC1CCCC(Cl)C1OCC(O)CO
4659,B-10095,(2E.6E)-2.6-bis[(4-methoxyphenyl)methylidene]cyclohexan-1-one,ZYMUNTZVOUBQAI-JSAVKQRWSA-N,COC1CCC(CC1)/C=C/1\CCC/C(=C\C2CCC(CC2)OC)/C1=O,006275-32-7,-6.467380912,COC1CCC(C=C2CCCC(=CC3CCC(OC)CC3)C2=O)CC1
4660,B-10096,1-[3-(3-phenylprop-2-ynyl)-3.8-diazabicyclo[3.2.1]octan-8-yl]propan-1-one,AQDHMDFRPGSAQA-UHFFFAOYSA-N,CCC(=O)N1C2CCC1CN(C2)CC#CC1CCCCC1,001945-04-6,-3.212798581,CCC(=O)N1C2CCC1CN(CC#CC1CCCCC1)C2
4661,B-10097,1.3-dimethyl-8-pentyl-7H-purine-2.6-dione,KRQCFJVRGKISQO-UHFFFAOYSA-N,CCCCCC1[NH]C2C(N1)N(C)C(=O)N(C2=O)C,035873-41-7,-2.837362936,CCCCCC1NC2C(=O)N(C)C(=O)N(C)C2N1
4662,B-10098,2.4-Dihydroxybenzaldehyde,IUNJCFABHJZSKB-UHFFFAOYSA-N,O=CC1CCC(CC1O)O,000095-01-2,-1.257453785,O=CC1CCC(O)CC1O
4663,B-10099,1.3-dimethyl-8-propyl-7H-purine-2.6-dione,LMQXNURVVYWBSR-UHFFFAOYSA-N,CCCC1[NH]C2C(N1)N(C)C(=O)N(C2=O)C,002850-41-1,-1.794169645,CCCC1NC2C(=O)N(C)C(=O)N(C)C2N1
4664,B-10100,N'.N'-dimethyl-N-(1-nitroacridin-9-yl)propane-1.3-diamine,YMVWGSQGCWCDGW-UHFFFAOYSA-N,CN(CCCNC1C2CCCCC2NC2C1C(CCC2)[N+](=O)[O-])C,004533-39-5,-3.836657612,CN(C)CCCNC1C2CCCCC2NC2CCCC([N+](=O)[O-])C21
4665,B-10101,3-(3-methoxyphenoxy)-2-methylpropane-1.2-diol,YJDHHWUZVJSQQZ-UHFFFAOYSA-N,OCC(COC1CCCC(C1)OC)(O)C,064049-41-8,-1.597672678,COC1CCCC(OCC(C)(O)CO)C1
4666,B-10103,1.3-benzoxazole-2.5-diamine,KGVVXUNDDIZWEL-UHFFFAOYSA-N,NC1CCC2C(C1)NC(O2)N,064037-26-9,-0.718787133,NC1CCC2OC(N)NC2C1
4667,B-10104,4-PHENYLPENTANOIC ACID,UIIMQLPOAXFKFW-UHFFFAOYSA-N,CC(C1CCCCC1)CCC(=O)O,016433-43-5,-2.283248112,CC(CCC(=O)O)C1CCCCC1
4668,B-10105,5-dimethylamino-1-(4-methoxyphenyl)-3.6-dimethylpyrimidine-2.4-dione,OKPXKOTXEVLWNV-UHFFFAOYSA-N,COC1CCC(CC1)N1C(C)C(N(C)C)C(=O)N(C1=O)C,032150-67-7,-2.164735767,COC1CCC(N2C(=O)N(C)C(=O)C(N(C)C)C2C)CC1
4669,B-10107,3-(2-methylphenyl)sulfanylpropane-1.2-diol,SQTKLANYSYZUQC-UHFFFAOYSA-N,OCC(CSC1CCCCC1C)O,063991-88-8,-1.950925936,CC1CCCCC1SCC(O)CO
4670,B-10108,1.3-dimethyl-8-propan-2-yl-7H-purine-2.6-dione,NKNVOKGUNUZJFC-UHFFFAOYSA-N,CC(C1[NH]C2C(N1)N(C)C(=O)N(C2=O)C)C,002850-40-0,-1.731940645,CC(C)C1NC2C(=O)N(C)C(=O)N(C)C2N1
4671,B-10109,(1S)-5-cyclohexyl-2.3-dihydro-1H-indene-1-carboxylic acid,BKEWDCUQDVDPHC-HNNXBMFYSA-N,OC(=O)[C@H]1CCC2C1CCC(C2)C1CCCCC1,031770-74-8,-4.940825874,O=C(O)C1CCC2CC(C3CCCCC3)CCC21
4672,B-10112,2-methyl-3-(4-methylphenoxy)propane-1.2-diol,MBJYNNMHFMUBHI-UHFFFAOYSA-N,OCC(COC1CCC(CC1)C)(O)C,063991-98-0,-1.879501049,CC1CCC(OCC(C)(O)CO)CC1
4673,B-10114,2-phenylethylurea,ZMTSMVZAFDWQRM-UHFFFAOYSA-N,NC(=O)NCCC1CCCCC1,002158-04-5,-1.346749847,NC(=O)NCCC1CCCCC1
4674,B-10116,ethyl 2-[2-(2-dimethylaminoethoxy)-2-oxoethoxy]-6-methyl-3-propan-2-ylbenzoate,LXACVVADKCRIQI-UHFFFAOYSA-N,CCOC(=O)C1C(C)CCC(C1OCC(=O)OCCN(C)C)C(C)C,052073-13-9,-3.863709809,CCOC(=O)C1C(C)CCC(C(C)C)C1OCC(=O)OCCN(C)C
4675,B-10118,methyl 2-[2-(3-dimethylaminopropoxy)-2-oxoethoxy]-6-methyl-3-propan-2-ylbenzoate,QGHFKHLAYNXMED-UHFFFAOYSA-N,COC(=O)C1C(C)CCC(C1OCC(=O)OCCCN(C)C)C(C)C,053206-87-4,-3.863709809,COC(=O)C1C(C)CCC(C(C)C)C1OCC(=O)OCCCN(C)C
4676,B-10119,2-acetyloxy-4-(trifluoromethyl)benzoic acid,RMWVZGDJPAKBDE-UHFFFAOYSA-N,CC(=O)OC1CC(CCC1C(=O)O)C(F)(F)F,000322-79-2,-2.079386054,CC(=O)OC1CC(C(F)(F)F)CCC1C(=O)O
4677,B-10120,1-[3-[2-(phenylamino)ethyl]-3.8-diazabicyclo[3.2.1]octan-8-yl]propan-1-one,ZGJOXLCSIYUFJN-UHFFFAOYSA-N,CCC(=O)N1C2CCC1CN(C2)CCNC1CCCCC1,063978-10-9,-2.659156807,CCC(=O)N1C2CCC1CN(CCNC1CCCCC1)C2
4678,B-10121,3-[(4-ethylphenyl)methoxy]propane-1.2-diol,DILZDMWFWNCRNK-UHFFFAOYSA-N,OCC(COCC1CCC(CC1)CC)O,063834-85-5,-2.100067019,CCC1CCC(COCC(O)CO)CC1
4679,B-10122,methyl 2-[2-(1-dimethylaminopropan-2-yloxy)-2-oxoethoxy]-6-methyl-3-propan-2-ylbenzoate,GUYKUDVQANANFT-UHFFFAOYSA-N,COC(=O)C1C(C)CCC(C1OCC(=O)OC(CN(C)C)C)C(C)C,053206-86-3,-3.801561902,COC(=O)C1C(C)CCC(C(C)C)C1OCC(=O)OC(C)CN(C)C
4680,B-10123,(methyl-phenylphosphoryl)benzene,PEGCITODQASXKH-UHFFFAOYSA-N,CP(=O)(C1CCCCC1)C1CCCCC1,002129-89-7,-2.384044404,CP(=O)(C1CCCCC1)C1CCCCC1
4681,B-10124,ethyl 2-hydroxy-5-methoxybenzoate,QFDVMOCQOGCDKA-UHFFFAOYSA-N,CCOC(=O)C1CC(OC)CCC1O,022775-40-2,-2.76378673,CCOC(=O)C1CC(OC)CCC1O
4682,B-10125,(4-Fluorophenyl)urea,IQZBVVPYTDHTIP-UHFFFAOYSA-N,NC(=O)NC1CCC(CC1)F,004694-55-7,-1.214337001,NC(=O)NC1CCC(F)CC1
4683,B-10127,1-[10-[3-(4-methoxypiperidin-1-yl)propyl]phenothiazin-2-yl]ethanone,JCDADBBKUHSPFI-UHFFFAOYSA-N,COC1CCN(CC1)CCCN1C2CCCCC2SC2C1CC(CC2)C(=O)C,031817-29-5,-6.259840377,COC1CCN(CCCN2C3CCCCC3SC3CCC(C(C)=O)CC32)CC1
4684,B-10128,2-[1-(2.6-dichlorophenoxy)ethyl]-4.5-dihydro-1H-imidazole,KSMAGQUYOIHWFS-UHFFFAOYSA-N,CC(C1=NCCN1)OC1C(Cl)CCCC1Cl,021498-08-8,-4.497432395,CC(OC1C(Cl)CCCC1Cl)C1=NCCN1
4685,B-10130,methyl 2-(3-dimethylamino-2-hydroxypropoxy)-6-methyl-3-propan-2-ylbenzoate,SCYNDZYCBJLQDA-UHFFFAOYSA-N,COC(=O)C1C(C)CCC(C1OCC(CN(C)C)O)C(C)C,053206-82-9,-2.636830534,COC(=O)C1C(C)CCC(C(C)C)C1OCC(O)CN(C)C
4686,B-10131,2.2-dioxo-3-prop-2-enyl-1H-benzo[d]thiazin-4-one,UVRZZNNYGUAYNU-UHFFFAOYSA-N,C=CCN1C(=O)C2CCCCC2CS1(=O)=O,031846-48-7,-2.442774538,C=CCN1C(=O)C2CCCCC2CS1(=O)=O
4687,B-10132,N-diethoxyphosphorylaniline,GESBKELMKMNZLZ-UHFFFAOYSA-N,CCOP(=O)(NC1CCCCC1)OCC,001445-38-1,-1.877371346,CCOP(=O)(NC1CCCCC1)OCC
4688,B-10133,3-(2-aminophenoxy)propane-1.2-diol,HPYYCONYZSKTMH-UHFFFAOYSA-N,OCC(COC1CCCCC1N)O,063905-25-9,-0.488425098,NC1CCCCC1OCC(O)CO
4689,B-10135,5-[(4-methoxyphenyl)sulfanylmethyl]-4.5-dihydro-1.3-oxazol-2-amine,HZTUFMXXIKGMQU-UHFFFAOYSA-N,COC1CCC(CC1)SCC1CN=C(O1)N,050510-13-9,-2.451305562,COC1CCC(SCC2CN=C(N)O2)CC1
4690,B-10136,methyl 2-[2-(2-diethylaminoethylamino)-2-oxoethoxy]-6-methyl-3-propan-2-ylbenzoate,DTRYRQSAXWHXNC-UHFFFAOYSA-N,CCN(CCNC(=O)COC1C(CCC(C1C(=O)OC)C)C(C)C)CC,053206-91-0,-4.889582982,CCN(CC)CCNC(=O)COC1C(C(C)C)CCC(C)C1C(=O)OC
4691,B-10137,5-Chloro-2.4-dihydroxybenzoic acid,SAZOOWOGQNYJLS-UHFFFAOYSA-N,OC(=O)C1CC(Cl)C(CC1O)O,067828-44-8,-2.052740008,O=C(O)C1CC(Cl)C(O)CC1O
4692,B-10138,1-[3-(2-hydroxy-3-piperidin-1-ylpropoxy)phenyl]ethanone,FPWIQSIIEYYWPP-UHFFFAOYSA-N,OC(CN1CCCCC1)COC1CCCC(C1)C(=O)C,063990-51-2,-1.722890804,CC(=O)C1CCCC(OCC(O)CN2CCCCC2)C1
4693,B-10139,4-dimethylamino-2-ethyl-2-naphthalen-1-ylbutanamide,AVSPYQKJZIZMFT-UHFFFAOYSA-N,CCC(C1CCCC2C1CCCC2)(C(=O)N)CCN(C)C,002807-91-2,-3.649794771,CCC(CCN(C)C)(C(N)=O)C1CCCC2CCCCC21
4694,B-10140,8-butyl-1.3-dimethyl-7H-purine-2.6-dione,VPISOLDSBFMXDM-UHFFFAOYSA-N,CCCCC1[NH]C2C(N1)N(C)C(=O)N(C2=O)C,035873-40-6,-2.316512902,CCCCC1NC2C(=O)N(C)C(=O)N(C)C2N1
4695,B-10141,[4-(bis(2-bromoethyl)amino)phenyl] 2-methylbenzoate,YYLJRENQBJIZGV-UHFFFAOYSA-N,BrCCN(C1CCC(CC1)OC(=O)C1CCCCC1C)CCBr,021667-02-7,-7.060267843,CC1CCCCC1C(=O)OC1CCC(N(CCBr)CCBr)CC1
4696,B-10142,3-[2-(dipropylamino)ethoxy]propyl 4-aminobenzoate,UAYKDHALAVBVGN-UHFFFAOYSA-N,CCCN(CCC)CCOCCCOC(=O)C1CCC(CC1)N,063917-78-2,-3.26294838,CCCN(CCC)CCOCCCOC(=O)C1CCC(N)CC1
4697,B-10144,2-[2-(3.4-dichlorophenyl)-2-oxoethyl]benzoic acid,YCYHVZWPNDQZAM-UHFFFAOYSA-N,O=C(C1CCC(C(C1)Cl)Cl)CC1CCCCC1C(=O)O,050439-10-6,-5.04924893,O=C(CC1CCCCC1C(=O)O)C1CCC(Cl)C(Cl)C1
4698,B-10146,[4-(bis(2-bromoethyl)amino)phenyl] benzoate,SWPGGPQCAMUQDY-UHFFFAOYSA-N,BrCCN(C1CCC(CC1)OC(=O)C1CCCCC1)CCBr,022954-10-5,-6.490687079,O=C(OC1CCC(N(CCBr)CCBr)CC1)C1CCCCC1
4699,B-10147,4-hydroxy-2-methyl-1.1-dioxo-N-pyridin-2-yl-1lambda6.2-benzothiazine-3-carboxamide,QYSPLQLAKJAUJT-UHFFFAOYSA-N,O=C(C1=C(O)C2CCCCC2S(=O)(=O)N1C)NC1CCCCN1,1044566-76-8,-4.499990825,CN1C(C(=O)NC2CCCCN2)=C(O)C2CCCCC2S1(=O)=O
4700,B-10149,[4-[bis(2-chloroethyl)amino]phenyl] 4-fluorobenzoate,DFINKRRPZPLYKC-UHFFFAOYSA-N,ClCCN(C1CCC(CC1)OC(=O)C1CCC(CC1)F)CCCl,022953-56-6,-5.993007278,O=C(OC1CCC(N(CCCl)CCCl)CC1)C1CCC(F)CC1
4701,B-10150,7-methoxy-2.3-dimethyl-8-(morpholin-4-ylmethyl)chromen-4-one,GJTMNUHTYIJXTJ-UHFFFAOYSA-N,COC1CCC2C(C1CN1CCOCC1)OC(C(C2=O)C)C,003818-64-2,-2.358103811,COC1CCC2C(=O)C(C)C(C)OC2C1CN1CCOCC1
4702,B-10151,2-(3-methylpent-1-yn-3-yloxycarbonyl)benzoic acid,CZGIRAWWWHPJHM-UHFFFAOYSA-N,CCC(OC(=O)C1CCCCC1C(=O)O)(C#C)C,000131-67-9,-2.666957661,C#CC(C)(CC)OC(=O)C1CCCCC1C(=O)O
4703,B-10153,5-Chloro-1H-indole-2-carboxylic acid,FUQOTYRCMBZFOL-UHFFFAOYSA-N,ClC1CCC2C(C1)CC([NH]2)C(=O)O,010517-21-2,-2.831980826,O=C(O)C1CC2CC(Cl)CCC2N1
4704,B-10154,1-[(3.4-dimethoxyphenyl)methyl]-6.7-dimethoxy-2-methyl-3.4-dihydro-1H-isoquinoline,KGPAYJZAMGEDIQ-UHFFFAOYSA-N,COC1CC(CCC1OC)CC1N(C)CCC2C1CC(OC)C(C2)OC,001699-51-0,-3.679894712,COC1CCC(CC2C3CC(OC)C(OC)CC3CCN2C)CC1OC
4705,B-10155,4-naphthalen-2-yl-3H-1.3-oxazol-2-one,CCGBNUKHCLUUFX-UHFFFAOYSA-N,O=C1OCC([NH]1)C1CCC2C(C1)CCCC2,034375-83-2,-2.935568954,O=C1NC(C2CCC3CCCCC3C2)CO1
4706,B-10156,3.4-Dihydroxy-5-methoxybenzaldehyde,RRKMWVISRMWBAL-UHFFFAOYSA-N,COC1CC(C=O)CC(C1O)O,003934-87-0,-0.918195642,COC1CC(C=O)CC(O)C1O
4707,B-10157,[4-[bis(2-chloroethyl)amino]phenyl] 3-chlorobenzoate,SXYLQUYLIISZOT-UHFFFAOYSA-N,ClCCN(C1CCC(CC1)OC(=O)C1CCCC(C1)Cl)CCCl,022953-54-4,-6.492143198,O=C(OC1CCC(N(CCCl)CCCl)CC1)C1CCCC(Cl)C1
4708,B-10158,1-(3.4.5-trimethoxyphenyl)propan-2-ylhydrazine,CHXQMYIAXRURDN-UHFFFAOYSA-N,NNC(CC1CC(OC)C(C(C1)OC)OC)C,016603-10-4,-1.724660973,COC1CC(CC(C)NN)CC(OC)C1OC
4709,B-10159,1-[4-(2-hydroxy-3-morpholin-4-ylpropoxy)phenyl]propan-1-one,OLGRRKKKZVVCNR-UHFFFAOYSA-N,CCC(=O)C1CCC(CC1)OCC(CN1CCOCC1)O,063957-22-2,-0.765837368,CCC(=O)C1CCC(OCC(O)CN2CCOCC2)CC1
4710,B-10160,5-(2-Chloroethyl)-1-methyl-2-nitroimidazole,WYZIGOITRAONMZ-UHFFFAOYSA-N,[O-][N+](=O)C1NCC(N1C)CCCl,023571-50-8,-2.439616821,CN1C(CCCl)CNC1[N+](=O)[O-]
4711,B-10161,1-phenyl-3-(1.3-thiazol-2-yl)thiourea,GCZZOZBWAZHCAN-UHFFFAOYSA-N,S=C(NC1NCCS1)NC1CCCCC1,014901-16-7,-2.806998312,S=C(NC1CCCCC1)NC1NCCS1
4712,B-10162,1-(2-chlorophenyl)-4-[2-(3.4-dimethoxyphenyl)ethyl]piperazine,PJDRMPCBIWKBJA-UHFFFAOYSA-N,COC1CC(CCN2CCN(CC2)C2CCCCC2Cl)CCC1OC,001243-33-0,-4.256335213,COC1CCC(CCN2CCN(C3CCCCC3Cl)CC2)CC1OC
4713,B-10163,O-naphthalen-2-yl (methyl-naphthalen-2-ylamino)methanethioate,PZHBZYPUUCYOIA-UHFFFAOYSA-N,CN(C1CCC2C(C1)CCCC2)C(=S)OC1CCC2C(C1)CCCC2,001050-10-8,-8.31313957,CN(C(=S)OC1CCC2CCCCC2C1)C1CCC2CCCCC2C1
4714,B-10164,3-(3.5-dimethylphenoxy)-2-methylpropane-1.2-diol,FQNXWYNWKZQFCN-UHFFFAOYSA-N,OCC(COC1CC(C)CC(C1)C)(O)C,064049-47-4,-2.449462888,CC1CC(C)CC(OCC(C)(O)CO)C1
4715,B-10165,1.5-dimethyl-2-phenyl-4-(propan-2-ylamino)pyrazol-3-one,XOZLRRYPUKAKMU-UHFFFAOYSA-N,CC(NC1C(C)N(N(C1=O)C1CCCCC1)C)C,002044-80-6,-1.833199869,CC(C)NC1C(=O)N(C2CCCCC2)N(C)C1C
4716,B-10166,4.5-dimethylacridine-3.6-diamine,CSUWOZHJCIQEMQ-UHFFFAOYSA-N,CC1C(N)CCC2C1NC1C(C2)CCC(C1C)N,040553-77-3,-4.24497495,CC1C(N)CCC2CC3CCC(N)C(C)C3NC21
4717,B-10167,(6aR.9R)-5-bromo-N.N-diethyl-7-methyl-6.6a.8.9-tetrahydro-4H-indolo[4.3-fg]quinoline-9-carboxamide,VKRAXSZEDRWLAG-SJKOYZFVSA-N,CCN(C(=O)[C@H]1CN(C)[C@H]2C(=C1)C1CCCC3C1C(C2)C([NH]3)Br)CC,000478-84-2,-4.504908253,CCN(CC)C(=O)C1C=C2C3CCCC4NC(Br)C(CC2N(C)C1)C43
4718,B-10168,(E)-3-(4-bromophenyl)prop-2-enoic acid,CPDDDTNAMBSPRN-ZZXKWVIFSA-N,OC(=O)/C=C/C1CCC(CC1)Br,001200-07-3,-2.99064693,O=C(O)C=CC1CCC(Br)CC1
4719,B-10169,6-amino-5-chloro-3H-1.3-benzoxazol-2-one,XGYICSXQOIEICF-UHFFFAOYSA-N,O=C1[NH]C2C(O1)CC(C(C2)Cl)N,064037-30-5,-1.123167465,NC1CC2OC(=O)NC2CC1Cl
4720,B-10170,3-(3-butylphenoxy)propane-1.2-diol,CZWHCHAGVJACTE-UHFFFAOYSA-N,CCCCC1CCCC(C1)OCC(CO)O,063834-63-9,-3.29775083,CCCCC1CCCC(OCC(O)CO)C1
4721,B-10171,N-(5-oxo-4H-dithiolo[3.4-d]pyrrol-6-yl)acetamide,HBUNPJGMNVQSBX-UHFFFAOYSA-N,CC(=O)NC1C2SSCC2[NH]C1=O,000488-04-0,-1.474931566,CC(=O)NC1C(=O)NC2CSSC21
4722,B-10172,2-phenyl-4-piperidin-1-yl-2-(2-piperidin-1-ylethyl)butanamide,TXSYVXMEIWQHCF-UHFFFAOYSA-N,NC(=O)C(C1CCCCC1)(CCN1CCCCC1)CCN1CCCCC1,002977-24-4,-5.000658837,NC(=O)C(CCN1CCCCC1)(CCN1CCCCC1)C1CCCCC1
4723,B-10173,(methoxymethyl-phenylphosphoryl)benzene,OEPKDBQOTLDTNC-UHFFFAOYSA-N,COCP(=O)(C1CCCCC1)C1CCCCC1,004455-77-0,-1.948889416,COCP(=O)(C1CCCCC1)C1CCCCC1
4724,B-10174,3-methyl-2-(2-morpholin-4-ylethyl)-2-phenylpentanamide,WZRLTEAJABPZBF-UHFFFAOYSA-N,CCC(C(C1CCCCC1)(C(=O)N)CCN1CCOCC1)C,003120-60-3,-3.235519873,CCC(C)C(CCN1CCOCC1)(C(N)=O)C1CCCCC1
4725,B-10175,N-(1-furan-2-ylethylideneamino)pyridine-4-carboxamide,GNDPAVKYAUIVEB-NTEUORMPSA-N,O=C(C1CCNCC1)N/N=C(/C1CCCO1)\C,003460-67-1,-3.693770525,CC(=NNC(=O)C1CCNCC1)C1CCCO1
4726,B-10176,[4-(bis(2-bromoethyl)amino)phenyl] 3-(trifluoromethyl)benzoate,KEUDYNSIGHFSQH-UHFFFAOYSA-N,BrCCN(C1CCC(CC1)OC(=O)C1CCCC(C1)C(F)(F)F)CCBr,022953-41-9,-7.808232007,O=C(OC1CCC(N(CCBr)CCBr)CC1)C1CCCC(C(F)(F)F)C1
4727,B-10179,(E)-1-(4-methyl-4.6-diazabicyclo[3.2.1]octan-6-yl)-3-(5-nitrothiophen-2-yl)prop-2-en-1-one,KOLACBWIZQJURK-DUXPYHPUSA-N,CN1CCC2CC1N(C2)C(=O)/C=C/C1CCC(S1)[N+](=O)[O-],057269-49-5,-3.064412791,CN1CCC2CC1N(C(=O)C=CC1CCC([N+](=O)[O-])S1)C2
4728,B-10180,3-(2-dimethylaminoethyl)-1H-indol-6-ol,WUQMRWPLIMXBDX-UHFFFAOYSA-N,CN(CCC1C[NH]C2C1CCC(C2)O)C,001476-33-1,-0.352603659,CN(C)CCC1CNC2CC(O)CCC12
4729,B-10181,ethyl 2-[4-(6-methyl4.6-diazabicyclo[3.2.1]octane-4-carbonyl)phenyl]acetate,BRHCJSYLVUWFLP-UHFFFAOYSA-N,CCOC(=O)CC1CCC(CC1)C(=O)N1CCC2CC1N(C)C2,057269-19-9,-2.054633644,CCOC(=O)CC1CCC(C(=O)N2CCC3CC2N(C)C3)CC1
4730,B-10182,3-(2-prop-2-enoxyphenoxy)propane-1.2-diol,WTGJGWJJJOCUQE-UHFFFAOYSA-N,C=CCOC1CCCCC1OCC(CO)O,006452-54-6,-1.920991791,C=CCOC1CCCCC1OCC(O)CO
4731,B-10184,(E)-1-phenyl-5-(4-pyridin-2-ylpiperazin-1-yl)pent-1-en-3-ol,LDHFPUHSSYUQAA-MDZDMXLPSA-N,OC(/C=C/C1CCCCC1)CCN1CCN(CC1)C1CCCCN1,037151-57-8,-3.221991998,OC(C=CC1CCCCC1)CCN1CCN(C2CCCCN2)CC1
4732,B-10185,2-(pentylamino)ethyl 4-aminobenzoate,UYXHCVFXDBNRQW-UHFFFAOYSA-N,CCCCCNCCOC(=O)C1CCC(CC1)N,002188-67-2,-3.27,CCCCCNCCOC(=O)C1CCC(N)CC1
4733,B-10186,2.2-dimethyl-N'-(phenylmethyl)propanehydrazide,FWWDFDMCZLOXQI-UHFFFAOYSA-N,O=C(C(C)(C)C)NNCC1CCCCC1,000306-19-4,-2.285092293,CC(C)(C)C(=O)NNCC1CCCCC1
4734,B-10187,N-acridin-3-ylacetamide,AOFMKIDPLZIMSQ-UHFFFAOYSA-N,CC(=O)NC1CCC2C(C1)NC1C(C2)CCCC1,023043-49-4,-4.106244205,CC(=O)NC1CCC2CC3CCCCC3NC2C1
4735,B-10188,6-ethoxy-7H-purine,BMLKPGJBYUTIHT-UHFFFAOYSA-N,CCOC1NCNC2C1[NH]CN2,017861-06-2,-1.886908904,CCOC1NCNC2NCNC21
4736,B-10189,2.6-Bis(hydroxymethyl)-4-methylphenol,KUMMBDBTERQYCG-UHFFFAOYSA-N,OCC1CC(C)CC(C1O)CO,000091-04-3,-0.387586113,CC1CC(CO)C(O)C(CO)C1
4737,B-10190,8-cyclobutyl-1.3-dimethyl-7H-purine-2.6-dione,OBURDMXZDVFAKK-UHFFFAOYSA-N,CN1C2NC([NH]C2C(=O)N(C1=O)C)C1CCC1,035873-48-4,-2.14180958,CN1C(=O)C2NC(C3CCC3)NC2N(C)C1=O
4738,B-10191,2-(5-nitrothiophen-2-yl)-1.3-thiazole-4-carboxylic acid,SNNIGNLXYVEYOC-UHFFFAOYSA-N,[O-][N+](=O)C1CCC(S1)C1SCC(N1)C(=O)O,056527-65-2,-3.4043425,O=C(O)C1CSC(C2CCC([N+](=O)[O-])S2)N1
4739,B-10193,8-amino-2.3-dimethoxy-6.7.8.9-tetrahydro-5H-benzo[7]annulen-1-ol,CRYDBSUOPZRYDG-UHFFFAOYSA-N,COC1C(OC)CC2C(C1O)CC(N)CCC2,049562-05-2,-1.926589588,COC1CC2CCCC(N)CC2C(O)C1OC
4740,B-10194,N-hydroxy-2-[4-(2-methylbutan-2-yl)phenyl]acetamide,MHPYROYXMZWPNN-UHFFFAOYSA-N,CCC(C1CCC(CC1)CC(=O)NO)(C)C,063884-95-7,-3.258621583,CCC(C)(C)C1CCC(CC(=O)NO)CC1
4741,B-10195,2.2-bis(phenoxy)acetic acid,BWRPEDIXOHZKFD-UHFFFAOYSA-N,OC(=O)C(OC1CCCCC1)OC1CCCCC1,000729-89-5,-3.149781357,O=C(O)C(OC1CCCCC1)OC1CCCCC1
4742,B-10196,ethyl 4-[4.5-di(phenyl)-1.3-oxazol-2-yl]piperazine-1-carboxylate,ZJYIVGNBYBGBFS-UHFFFAOYSA-N,CCOC(=O)N1CCN(CC1)C1NC(C(O1)C1CCCCC1)C1CCCCC1,020503-89-3,-6.170312346,CCOC(=O)N1CCN(C2NC(C3CCCCC3)C(C3CCCCC3)O2)CC1
4743,B-10197,6-sulfanylspiro[3.4-dihydropyridine-5.2&apos-tricyclo[9.4.0.03.8]pentadeca-1(15).3.5.7.11.13-hexaene]-2-one,GQVUYVZMHLQIRT-UHFFFAOYSA-N,O=C1CCC2(C(=S)N1)C1CCCCC1CCC1C2CCCC1,064036-47-1,-5.338500305,O=C1CCC2(C(=S)N1)C1CCCCC1CCC1CCCCC12
4744,B-10198,6-methyl-3-propan-2-yl-2-propoxybenzoic acid,FUKGUAVFRQEKLQ-UHFFFAOYSA-N,CCCOC1C(CCC(C1C(=O)O)C)C(C)C,053206-94-3,-4.203222223,CCCOC1C(C(C)C)CCC(C)C1C(=O)O
4745,B-10199,4-(bis(2-bromoethyl)amino)phenol,SVMALHWUCBPBFC-UHFFFAOYSA-N,BrCCN(C1CCC(CC1)O)CCBr,021667-05-0,-4.125424829,OC1CCC(N(CCBr)CCBr)CC1
4746,B-10200,2-pentoxybenzamide,UHYJMNVCANOFPF-UHFFFAOYSA-N,CCCCCOC1CCCCC1C(=O)N,005579-06-6,-2.632595582,CCCCCOC1CCCCC1C(N)=O
4747,B-10201,4-(phenoxy)butanoic acid,YKYVPFIBWVQZCE-UHFFFAOYSA-N,OC(=O)CCCOC1CCCCC1,006303-58-8,-2.094394015,O=C(O)CCCOC1CCCCC1
4748,B-10202,5-[(1R.9R.10R)-4-hydroxy-17-azatetracyclo[7.5.3.01.10.02.7]heptadeca-2(7).3.5-trien-17-yl]-1-phenylpentan-1-one,QPBWWFZYFRFGSD-VXQMPNGUSA-N,OC1CCC2C(C1)[C@]13CCCC[C@H]3[C@@H](C2)N(CC1)CCCCC(=O)C1CCCCC1,063868-11-1,-4.849278473,O=C(CCCCN1CCC23CCCCC2C1CC1CCC(O)CC13)C1CCCCC1
4749,B-10203,3-(4-Methoxyphenoxy)propane-1.2-diol,UWZDUHTYIUMENV-UHFFFAOYSA-N,OCC(COC1CCC(CC1)OC)O,017131-52-1,-1.450187765,COC1CCC(OCC(O)CO)CC1
4750,B-10204,3-furan-2-yl-2-naphthalen-1-ylpropanamide,DJIIKEYPSTUVKV-UHFFFAOYSA-N,NC(=O)C(C1CCCC2C1CCCC2)CC1CCCO1,003459-61-8,-2.855555186,NC(=O)C(CC1CCCO1)C1CCCC2CCCCC21
4751,B-10206,2-[4-[3.3.3-tri(phenyl)propyl]piperazin-1-yl]pyrazine,BYTVUZSLDOOEOJ-UHFFFAOYSA-N,C1CCC(CC1)C(C1CCCCC1)(C1CCCCC1)CCN1CCN(CC1)C1CNCCN1,034675-79-1,-6.51750281,C1CCC(C(CCN2CCN(C3CNCCN3)CC2)(C2CCCCC2)C2CCCCC2)CC1