,C_ID,Name,InChIKey,SMILES,CAS,LogS,smiles_canon
659,B-3142,Sulfinylamide. N4-(6-deoxy-L-mannopyranosyl)-,UQSFUQLWOVFBKX-UHFFFAOYSA-N,CC1C(C(C(C(O1)NC2=CC=C(C=C2)S(=O)(=O)N)O)O)O,010571-73-0,-0.502904854,CC1OC(Nc2ccc(S(N)(=O)=O)cc2)C(O)C(O)C1O
660,B-3143,Phillyrin,KFFCKOBAHMGTMW-LGQRSHAYSA-N,COC1=C(C=C(C=C1)[C@H]2[C@H]3CO[C@@H]([C@H]3CO2)C4=C(C=C(C=C4)O[C@H]5[C@@H]([C@H]([C@@H]([C@H](O5)CO)O)O)O)OC)OC,000487-41-2,-3.125944591,COc1ccc(C2OCC3C(c4ccc(OC5OC(CO)C(O)C(O)C5O)cc4OC)OCC23)cc1OC
661,B-3144,Flubendiamide,ZGNITFSDLCMLGI-UHFFFAOYSA-N,CC1=C(C=CC(=C1)C(C(F)(F)F)(C(F)(F)F)F)NC(=O)C2=C(C(=CC=C2)I)C(=O)NC(C)(C)CS(=O)(=O)C,272451-65-7,-7.35836783,Cc1cc(C(F)(C(F)(F)F)C(F)(F)F)ccc1NC(=O)c1cccc(I)c1C(=O)NC(C)(C)CS(C)(=O)=O
662,B-3145,3-fluoro-4-(3-hydroxypropylsulfonyl)benzenesulfonamide,YMPAILZZZMECHW-UHFFFAOYSA-N,C1=CC(=C(C=C1S(=O)(=O)N)F)S(=O)(=O)CCCO,108966-77-4,-1.653680189,NS(=O)(=O)c1ccc(S(=O)(=O)CCCO)c(F)c1
663,B-3150,methyl 2-(3-hydroxypropylsulfonyl)-5-sulfamoylbenzoate,BBJHPXHJTKRGFT-UHFFFAOYSA-N,COC(=O)C1=C(C=CC(=C1)S(=O)(=O)N)S(=O)(=O)CCCO,108966-67-2,-1.381965552,COC(=O)c1cc(S(N)(=O)=O)ccc1S(=O)(=O)CCCO
664,B-3151,Aliskiren,UXOWGYHJODZGMF-QORCZRPOSA-N,CC(C)[C@@H](CC1=CC(=C(C=C1)OC)OCCCOC)C[C@@H]([C@H](C[C@@H](C(C)C)C(=O)NCC(C)(C)C(=O)N)O)N,173334-57-1,-0.19769004,COCCCOc1cc(CC(CC(N)C(O)CC(C(=O)NCC(C)(C)C(N)=O)C(C)C)C(C)C)ccc1OC
665,B-3154,Amsonic acid,REJHVSOVQBJEBF-OWOJBTEDSA-N,C1=CC(=C(C=C1N)S(=O)(=O)O)/C=C/C2=C(C=C(C=C2)N)S(=O)(=O)O,000081-11-8,-4.137307214,Nc1ccc(C=Cc2ccc(N)cc2S(=O)(=O)O)c(S(=O)(=O)O)c1
666,B-3158,3'-Adenylic acid,LNQVTSROQXJCDD-KQYNXXCUSA-N,C1=NC(=C2C(=N1)N(C=N2)[C@H]3[C@@H]([C@@H]([C@H](O3)CO)OP(=O)(O)O)O)N,000084-21-9,-2.841647236,Nc1ncnc2c1ncn2C1OC(CO)C(OP(=O)(O)O)C1O
667,B-3161,CHLOROTHIAZIDE,JBMKAUGHUNFTOL-UHFFFAOYSA-N,C1=C2C(=CC(=C1Cl)S(=O)(=O)N)S(=O)(=O)N=CN2,000058-94-6,-3.045999061,NS(=O)(=O)c1cc2c(cc1Cl)NC=NS2(=O)=O
668,B-3173,Thiamine Disulfide,GFEGEDUIIYDMOX-YHARCJFQSA-N,CC1=NC=C(C(=N1)N)CN(/C(=C(/SS/C(=C(/N(C=O)CC2=CN=C(N=C2N)C)\C)/CCO)\CCO)/C)C=O,000067-16-3,0.004063703,CC(=C(CCO)SSC(CCO)=C(C)N(C=O)Cc1cnc(C)nc1N)N(C=O)Cc1cnc(C)nc1N
669,B-3174,ISOGUANINE,DRAVOWXCEBXPTN-UHFFFAOYSA-N,C1=NC2=NC(=O)NC(=C2N1)N,003373-53-3,-3.383470665,Nc1[nH]c(=O)nc2nc[nH]c12
670,B-3177,QUERCITRIN,OXGUCUVFOIWWQJ-HQBVPOQASA-N,C[C@H]1[C@@H]([C@H]([C@H]([C@@H](O1)OC2=C(OC3=CC(=CC(=C3C2=O)O)O)C4=CC(=C(C=C4)O)O)O)O)O,000522-12-3,-3.845475944,CC1OC(Oc2c(-c3ccc(O)c(O)c3)oc3cc(O)cc(O)c3c2=O)C(O)C(O)C1O
671,B-3179,Aurintricarboxylic acid,GIXWDMTZECRIJT-UHFFFAOYSA-N,C1=CC(=C(C=C1C(=C2C=CC(=O)C(=C2)C(=O)O)C3=CC(=C(C=C3)O)C(=O)O)C(=O)O)O,004431-00-9,-1.780574459,O=C(O)C1=CC(=C(c2ccc(O)c(C(=O)O)c2)c2ccc(O)c(C(=O)O)c2)C=CC1=O
672,B-3186,Zanamivir,ARAIBEBZBOPLMB-UFGQHTETSA-N,CC(=O)N[C@@H]1[C@H](C=C(O[C@H]1[C@@H]([C@@H](CO)O)O)C(=O)O)N=C(N)N,139110-80-8,-1.266283974,CC(=O)NC1C(N=C(N)N)C=C(C(=O)O)OC1C(O)C(O)CO
673,B-3189,Trisiloxane. 1.1.1.3.5.5.5-heptamethyl-,SWGZAKPJNWCPRY-UHFFFAOYSA-N,C[Si](O[Si](C)(C)C)O[Si](C)(C)C,001873-88-7,-7.046319538,C[Si](O[Si](C)(C)C)O[Si](C)(C)C
674,B-3191,(Nitrilotris(methylene))triphosphonic acid,YDONNITUKPKTIG-UHFFFAOYSA-N,C(N(CP(=O)(O)O)CP(=O)(O)O)P(=O)(O)O,006419-19-8,0.524256193,O=P(O)(O)CN(CP(=O)(O)O)CP(=O)(O)O
675,B-3192,NARINGINE,DFPMSGMNTNDNHN-ZPHOTFPESA-N,C[C@H]1[C@@H]([C@H]([C@H]([C@@H](O1)O[C@@H]2[C@H]([C@@H]([C@H](O[C@H]2OC3=CC(=C4C(=O)C[C@H](OC4=C3)C5=CC=C(C=C5)O)O)CO)O)O)O)O)O,010236-47-2,-2.763839629,CC1OC(OC2C(Oc3cc(O)c4c(c3)OC(c3ccc(O)cc3)CC4=O)OC(CO)C(O)C2O)C(O)C(O)C1O
676,B-3194,DIETHYLENETRIAMINEPENTAACETIC ACID,QPCDCPDFJACHGM-UHFFFAOYSA-N,C(CN(CC(=O)O)CC(=O)O)N(CCN(CC(=O)O)CC(=O)O)CC(=O)O,000067-43-6,-1.913537917,O=C(O)CN(CCN(CC(=O)O)CC(=O)O)CCN(CC(=O)O)CC(=O)O
677,B-3198,2-(carbamoylamino)-3-methylbutanoic acid,JDXMIYHOSFNZKO-UHFFFAOYSA-N,CC(C)C(C(=O)O)NC(=O)N,026081-00-5,-1.532483318,CC(C)C(NC(N)=O)C(=O)O
678,B-3199,2-(2-methoxy-4-prop-2-enylphenoxy)acetic acid,FQBPCNCFOCPCJP-UHFFFAOYSA-N,COC1=C(C=CC(=C1)CC=C)OCC(=O)O,006331-61-9,-2.278636367,C=CCc1ccc(OCC(=O)O)c(OC)c1
679,B-3203,DL-lysine. N2-benzoyl-,IYHOIXNPULYXFO-NSHDSACASA-N,C1=CC=C(C=C1)C(=O)N[C@@H](CCCC[NH3+])C(=O)[O-],116783-33-6,-2.284517497,[NH3+]CCCCC(NC(=O)c1ccccc1)C(=O)[O-]
680,B-3211,"PHENOL. 4.4'.4""-[(2.4.6-TRIMETHYL-1.3.5-BENZENET",VSAWBBYYMBQKIK-UHFFFAOYSA-N,CC1=C(C(=C(C(=C1CC2=CC(=C(C(=C2)C(C)(C)C)O)C(C)(C)C)C)CC3=CC(=C(C(=C3)C(C)(C)C)O)C(C)(C)C)C)CC4=CC(=C(C(=C4)C(C)(C)C)O)C(C)(C)C,001709-70-2,-5.810243723,Cc1c(Cc2cc(C(C)(C)C)c(O)c(C(C)(C)C)c2)c(C)c(Cc2cc(C(C)(C)C)c(O)c(C(C)(C)C)c2)c(C)c1Cc1cc(C(C)(C)C)c(O)c(C(C)(C)C)c1
681,B-3214,1.1.1.2.2.3.3.4.5.5.5-Undecafluoro-4-(trifluoromethyl)pentane,ROVMKEZVKFJNBD-UHFFFAOYSA-N,C(C(C(C(F)(F)F)(F)F)(F)F)(C(F)(F)F)(C(F)(F)F)F,000355-04-4,-6.301086527,FC(F)(F)C(F)(F)C(F)(F)C(F)(C(F)(F)F)C(F)(F)F
682,B-3215,Dodecafluoropentane,NJCBUSHGCBERSK-UHFFFAOYSA-N,C(C(C(F)(F)F)(F)F)(C(C(F)(F)F)(F)F)(F)F,000678-26-2,-5.398748931,FC(F)(F)C(F)(F)C(F)(F)C(F)(F)C(F)(F)F
683,B-3220,Ethylcyclopentane,IFTRQJLVEBNKJK-UHFFFAOYSA-N,CCC1CCCC1,001640-89-7,-2.916515876,CCC1CCCC1
684,B-3221,1.2-Dichloro-1.1.2.3.3.3-hexafluoropropane,JSEUKVSKOHVLOV-UHFFFAOYSA-N,C(C(F)(F)F)(C(F)(F)Cl)(F)Cl,000661-97-2,-3.361969699,FC(F)(F)C(F)(Cl)C(F)(F)Cl
685,B-3224,1.1.1.2.2.3.3.4.4.5.5.6.6.6-tetradecafluorohexane,ZJIJAJXFLBMLCK-UHFFFAOYSA-N,C(C(C(C(F)(F)F)(F)F)(F)F)(C(C(F)(F)F)(F)F)(F)F,000355-42-0,-6.570409349,FC(F)(F)C(F)(F)C(F)(F)C(F)(F)C(F)(F)C(F)(F)F
686,B-3225,1.1.1.2.2.3.3.4.4.5.5.6.6.7.7.8.8.8-octadecafluorooctane,YVBBRRALBYAZBM-UHFFFAOYSA-N,C(C(C(C(C(F)(F)F)(F)F)(F)F)(F)F)(C(C(C(F)(F)F)(F)F)(F)F)(F)F,000307-34-6,-8.421424519,FC(F)(F)C(F)(F)C(F)(F)C(F)(F)C(F)(F)C(F)(F)C(F)(F)C(F)(F)F
687,B-3229,propan-2-ylcyclopentane,TVSBRLGQVHJIKT-UHFFFAOYSA-N,CC(C)C1CCCC1,003875-51-2,-3.041454612,CC(C)C1CCCC1
688,B-3230,1.1.1.2.2.3.3.4.4.5.5.6.6.7.7.7-hexadecafluoroheptane,LGUZHRODIJCVOC-UHFFFAOYSA-N,C(C(C(C(F)(F)F)(F)F)(F)F)(C(C(C(F)(F)F)(F)F)(F)F)(F)F,000335-57-9,-7.488518262,FC(F)(F)C(F)(F)C(F)(F)C(F)(F)C(F)(F)C(F)(F)C(F)(F)F
689,B-3231,Butylcyclopentane,ZAGHKONXGGSVDV-UHFFFAOYSA-N,CCCCC1CCCC1,002040-95-1,-3.123483701,CCCCC1CCCC1
690,B-3232,2.4-Dimethylhexane,HDGQICNBXPAKLR-UHFFFAOYSA-N,CCC(C)CC(C)C,000589-43-5,-3.066561705,CCC(C)CC(C)C
691,B-3233,Hexylcyclopentane,LKHGKBBAJAFMSQ-UHFFFAOYSA-N,CCCCCCC1CCCC1,004457-00-5,-3.264078196,CCCCCCC1CCCC1
692,B-3234,2-Methyloctane,ZUBZATZOEPUUQF-UHFFFAOYSA-N,CCCCCCC(C)C,003221-61-2,-3.15384534,CCCCCCC(C)C
693,B-3235,3-Methyloctane,SEEOMASXHIJCDV-UHFFFAOYSA-N,CCCCCC(C)CC,002216-33-3,-3.168568597,CCCCCC(C)CC
694,B-3236,2.7-Dimethyloctane,KEVMYFLMMDUPJE-UHFFFAOYSA-N,CC(C)CCCCC(C)C,001072-16-8,-3.213642918,CC(C)CCCCC(C)C
695,B-3237,2.6-DIMETHYLHEPTANE,KBPCCVWUMVGXGF-UHFFFAOYSA-N,CC(C)CCCC(C)C,001072-05-5,-3.38381198,CC(C)CCCC(C)C
696,B-3238,1.1.1.2.2.3.4.5.5.5-decafluoro-3-(1.1.1.2.3.3.3-heptafluoropropan-2-yl)-4-(trifluoromethyl)pentane,GEXSLRJJTOFEMA-UHFFFAOYSA-N,C(C(C(F)(F)F)(C(F)(F)F)F)(C(C(F)(F)F)(C(F)(F)F)F)(C(C(F)(F)F)(F)F)F,050285-18-2,-8.602119614,FC(F)(F)C(F)(F)C(F)(C(F)(C(F)(F)F)C(F)(F)F)C(F)(C(F)(F)F)C(F)(F)F
697,B-3240,4-cyclopentylbutylcyclopentane,DDFOSKBMELVNDG-UHFFFAOYSA-N,C1CCC(C1)CCCCC2CCCC2,002980-70-3,-3.145596559,C1CCC(CCCCC2CCCC2)C1
698,B-3241,Perfluorodecane,BPHQIXJDBIHMLT-UHFFFAOYSA-N,C(C(C(C(C(C(F)(F)F)(F)F)(F)F)(F)F)(F)F)(C(C(C(C(F)(F)F)(F)F)(F)F)(F)F)(F)F,000307-45-9,-6.235298477,FC(F)(F)C(F)(F)C(F)(F)C(F)(F)C(F)(F)C(F)(F)C(F)(F)C(F)(F)C(F)(F)C(F)(F)F
699,B-3242,1.1.1.3-TETRACHLORO-2.2.3.3-TETRAFLUOROPROPANE,IQJADVFBZGJGSI-UHFFFAOYSA-N,C(C(F)(F)Cl)(C(Cl)(Cl)Cl)(F)F,002268-46-4,-3.688534473,FC(F)(Cl)C(F)(F)C(Cl)(Cl)Cl
700,B-3243,1.2-Dibromo-1.1.2.3.3.3-hexafluoropropane,KTULQNFKNLFOHL-UHFFFAOYSA-N,C(C(F)(F)F)(C(F)(F)Br)(F)Br,000661-95-0,-3.658615956,FC(F)(F)C(F)(Br)C(F)(F)Br
701,B-3245,1.1.1-trichloro-2.2.3.3.3-pentafluoropropane,HJRXHKBZNQULJQ-UHFFFAOYSA-N,C(C(F)(F)F)(C(Cl)(Cl)Cl)(F)F,004259-43-2,-3.612006984,FC(F)(F)C(F)(F)C(Cl)(Cl)Cl
702,B-3246,bromo-trichloromethane,XNNQFQFUQLJSQT-UHFFFAOYSA-N,C(Cl)(Cl)(Cl)Br,000075-62-7,-3.519094804,ClC(Cl)(Cl)Br
703,B-3247,1.1.1.2.2.3.3.4.4.5.5.6.6.7.7.8.8.9.9.10.10.11.11.12.12.12-hexacosafluorododecane,WNZGTRLARPEMIG-UHFFFAOYSA-N,C(C(C(C(C(C(C(F)(F)F)(F)F)(F)F)(F)F)(F)F)(F)F)(C(C(C(C(C(F)(F)F)(F)F)(F)F)(F)F)(F)F)(F)F,000307-59-5,-7.825789038,FC(F)(F)C(F)(F)C(F)(F)C(F)(F)C(F)(F)C(F)(F)C(F)(F)C(F)(F)C(F)(F)C(F)(F)C(F)(F)C(F)(F)F
704,B-3248,tribromo-fluoromethane,IHZAEIHJPNTART-UHFFFAOYSA-N,C(F)(Br)(Br)Br,000353-54-8,-2.830461954,FC(Br)(Br)Br
705,B-3250,7.8-dimethyltetradecane,ADQGKNVLGXQIRL-UHFFFAOYSA-N,CCCCCCC(C)C(C)CCCCCC,002801-86-7,-3.014524374,CCCCCCC(C)C(C)CCCCCC
706,B-3253,(Z)-Oct-2-ene,ILPBINAXDRFYPL-HYXAFXHYSA-N,CCCCC/C=C\C,000111-67-1,-3.666239418,CC=CCCCCC
707,B-3255,(3E)-1.1.2.3.4.5.5.5-octachloropenta-1.3-diene,IEQCQHOSIWSRIH-HNQUOIGGSA-N,C(=C(/C(Cl)(Cl)Cl)\Cl)(\C(=C(Cl)Cl)Cl)/Cl,027829-50-1,-3.409017869,ClC(Cl)=C(Cl)C(Cl)=C(Cl)C(Cl)(Cl)Cl
708,B-3256,bicyclo[2.2.1]hepta-2.5-diene,SJYNFBVQFBRSIB-UHFFFAOYSA-N,C1C2C=CC1C=C2,000121-46-0,-2.494630905,C1=CC2C=CC1C2
709,B-3285,(2-ethylcyclopentyl)benzene,YLEUOKZKYHZFEX-UHFFFAOYSA-N,CCC1=CC=CC=C1C2CCCC2,062379-81-1,-1.046840486,CCc1ccccc1C1CCCC1
710,B-3288,1.3.5-Trimethyl-2-propylbenzene,CDDRKPHVEQMWKP-UHFFFAOYSA-N,CCCC1=C(C=C(C=C1C)C)C,004810-04-2,-2.803714114,CCCc1c(C)cc(C)cc1C
711,B-3293,1-CHLOROTETRADECANE,RNHWYOLIEJIAMV-UHFFFAOYSA-N,CCCCCCCCCCCCCCCl,002425-54-9,-3.001562145,CCCCCCCCCCCCCCCl
712,B-3296,2.4.6-trimethyl-2-phenylheptene,FUGAHIZTKODHLL-UHFFFAOYSA-N,CC(C)CC(C)CC(C)(C)C1=CC=CC=C1,004810-06-4,-3.151700096,CC(C)CC(C)CC(C)(C)c1ccccc1
713,B-3302,2-ethyl-1.3.5-trimethylbenzene,HYCOYJYBHKAKGQ-UHFFFAOYSA-N,CCC1=C(C=C(C=C1C)C)C,003982-67-0,-2.757692008,CCc1c(C)cc(C)cc1C
714,B-3305,1.3-BIS(TRIFLUOROMETHYL)BENZENE,SJBBXFLOLUTGCW-UHFFFAOYSA-N,C1=CC(=CC(=C1)C(F)(F)F)C(F)(F)F,000402-31-3,-3.718913643,FC(F)(F)c1cccc(C(F)(F)F)c1
715,B-3309,2.3-DICHLOROBUTA-1.3-DIENE,LIFLRQVHKGGNSG-UHFFFAOYSA-N,C=C(C(=C)Cl)Cl,001653-19-6,-2.788790367,C=C(Cl)C(=C)Cl
716,B-3310,3-(2.4.6-Trimethylphenyl)-1-propene,HEIXPNNBTVAWDD-UHFFFAOYSA-N,CC1=CC(=C(C(=C1)C)CC=C)C,004810-05-3,-2.813890031,C=CCc1c(C)cc(C)cc1C
717,B-3321,3-Chloro-1.1.1-trifluoropropane,ZPIFKCVYZBVZIV-UHFFFAOYSA-N,C(CCl)C(F)(F)F,000460-35-5,-1.999302439,FC(F)(F)CCCl
718,B-3330,2.4-Dichloro-6-propylphenol,FUKPHBJLEDJLQG-UHFFFAOYSA-N,CCCC1=CC(=CC(=C1O)Cl)Cl,091399-12-1,-3.311919073,CCCc1cc(Cl)cc(Cl)c1O
719,B-3334,2.4-Dichloro-6-ethylphenol,SLZAAZXYSOSHPM-UHFFFAOYSA-N,CCC1=C(C(=CC(=C1)Cl)Cl)O,024539-94-4,-2.886697634,CCc1cc(Cl)cc(Cl)c1O
720,B-3336,2.4.6-Trichloro-3.5-dimethylphenol,ZNEWEUWJXXZLAD-UHFFFAOYSA-N,CC1=C(C(=C(C(=C1Cl)O)Cl)C)Cl,006972-47-0,-4.656776676,Cc1c(Cl)c(C)c(Cl)c(O)c1Cl
721,B-3337,2.3-Dichloropentane,HVFJQRZGBBKTPL-UHFFFAOYSA-N,CCC(C(C)Cl)Cl,000600-11-3,-2.694482043,CCC(Cl)C(C)Cl
722,B-3343,1.2-DICHLOROPENTANE,PPLBPDUKNRCHGG-UHFFFAOYSA-N,CCCC(CCl)Cl,001674-33-5,-2.694482043,CCCC(Cl)CCl
723,B-3348,1.5-Dichloropentane,LBKDGROORAKTLC-UHFFFAOYSA-N,C(CCCl)CCCl,000628-76-2,-3.059421791,ClCCCCCCl
724,B-3350,4-Chloro-2.5-dimethylphenol,MMRJLQJSFOSVAM-UHFFFAOYSA-N,CC1=CC(=C(C=C1Cl)C)O,001124-06-7,-1.243965258,Cc1cc(Cl)c(C)cc1O
725,B-3364,3-ETHYLPENTANE,AORMDLNPRGXHHL-UHFFFAOYSA-N,CCC(CC)CC,000617-78-7,-4.52,CCC(CC)CC
726,B-3365,3-Ethyl-2-methylpentane,DUPUVYJQZSLSJB-UHFFFAOYSA-N,CCC(CC)C(C)C,000609-26-7,-5.082,CCC(CC)C(C)C
727,B-3367,4-METHYLHEPTANE,CHBAWFGIXDBEBT-UHFFFAOYSA-N,CCCC(C)CCC,000589-53-7,-5.132,CCCC(C)CCC
728,B-3368,CYCLODECANE,LMGZGXSXHCMSAA-UHFFFAOYSA-N,C1CCCCCCCCC1,000293-96-9,-5.62,C1CCCCCCCCC1
729,B-3369,3-ETHYLHEXANE,SFRKSDZMZHIISH-UHFFFAOYSA-N,CCCC(CC)CC,000619-99-8,-5.152,CCCC(CC)CC
730,B-3370,3.3-DIETHYLPENTANE,BGXXXYLRPIRDHJ-UHFFFAOYSA-N,CCC(CC)(CC)CC,001067-20-5,-5.839999999,CCC(CC)(CC)CC
731,B-3371,3-Ethyl-3-methylpentane,GIEZWIDCIFCQPS-UHFFFAOYSA-N,CCC(C)(CC)CC,001067-08-9,-5.145,CCC(C)(CC)CC
732,B-3372,3.4-DIMETHYLHEXANE,RNTWWGNZUXGTAX-UHFFFAOYSA-N,CCC(C)C(C)CC,000583-48-2,-5.155,CCC(C)C(C)CC
733,B-3373,2.3-DIMETHYLHEXANE,JXPOLSKBTUYKJB-UHFFFAOYSA-N,CCCC(C)C(C)C,000584-94-1,-5.082,CCCC(C)C(C)C
734,B-3374,4-ETHYLHEPTANE,XMROPFQWHHUFFS-UHFFFAOYSA-N,CCCC(CC)CCC,002216-32-2,-5.720000001,CCCC(CC)CCC
735,B-3375,2.4.4-TRIMETHYLHEXANE,SVEMKBCPZYWEPH-UHFFFAOYSA-N,CCC(C)(C)CC(C)C,016747-30-1,-5.48,CCC(C)(C)CC(C)C
736,B-3376,3-ETHYL-4-METHYLHEXANE,OKCRKWVABWILDR-UHFFFAOYSA-N,CCC(C)C(CC)CC,003074-77-9,-5.705,CCC(C)C(CC)CC
737,B-3377,4.4-Dimethylheptane,WSOKFYJGNBQDPW-UHFFFAOYSA-N,CCCC(C)(C)CCC,001068-19-5,-5.585,CCCC(C)(C)CCC
738,B-3378,3.3-Dimethylheptane,BVAKDOXCVSMKHE-UHFFFAOYSA-N,CCCCC(C)(C)CC,004032-86-4,-5.63,CCCCC(C)(C)CC
739,B-3379,2.5-DIMETHYLHEXANE,UWNADWZGEHDQAB-UHFFFAOYSA-N,CC(C)CCC(C)C,000592-13-2,-4.921,CC(C)CCC(C)C
740,B-3380,2.5-DIMETHYLHEPTANE,HQZHQNKZOYIKQC-UHFFFAOYSA-N,CCC(C)CCC(C)C,002216-30-0,-5.6,CCC(C)CCC(C)C
741,B-3381,2.3-DIMETHYLOCTANE,YPMNDMUOGQJCLW-UHFFFAOYSA-N,CCCCCC(C)C(C)C,007146-60-3,-6.291,CCCCCC(C)C(C)C
742,B-3382,2.2.3-TRIMETHYLHEXANE,CBVFSZDQEHBJEQ-UHFFFAOYSA-N,CCCC(C)C(C)(C)C,016747-25-4,-5.55,CCCC(C)C(C)(C)C
743,B-3383,3-Methyl-3-ethylhexane,CYWROHZCELEGSE-UHFFFAOYSA-N,CCCC(C)(CC)CC,003074-76-8,-5.71,CCCC(C)(CC)CC
744,B-3384,3.3-Dimethylhexane,KUMXLFIBWFCMOJ-UHFFFAOYSA-N,CCCC(C)(C)CC,000563-16-6,-4.998,CCCC(C)(C)CC
745,B-3385,3.5-DIMETHYLHEPTANE,DZJTZGHZAWTWGA-UHFFFAOYSA-N,CCC(C)CC(C)CC,000926-82-9,-5.6,CCC(C)CC(C)CC
746,B-3386,2.4-DIMETHYLOCTANE,IXAVTTRPEXFVSX-UHFFFAOYSA-N,CCCCC(C)CC(C)C,004032-94-4,-6.103000001,CCCCC(C)CC(C)C
747,B-3387,2-methyl-3-ethylhexane,MVLOWDRGPHBNNF-UHFFFAOYSA-N,CCCC(CC)C(C)C,016789-46-1,-5.65,CCCC(CC)C(C)C
748,B-3388,3.3.4-TRIMETHYLHEXANE,ARWOOWBJJKVYOV-UHFFFAOYSA-N,CCC(C)C(C)(C)CC,016747-31-2,-5.707,CCC(C)C(C)(C)CC
749,B-3389,2-Methyl-5-ethylheptane,DGEMPTLPTFNEHJ-UHFFFAOYSA-N,CCC(CC)CCC(C)C,013475-78-0,-6.186999999,CCC(CC)CCC(C)C
750,B-3390,3.6-Dimethyloctane,JEEQUUSFXYRPRK-UHFFFAOYSA-N,CCC(C)CCC(C)CC,015869-94-0,-6.213999999,CCC(C)CCC(C)CC
751,B-3391,4-Ethyloctane,NRJUFUBKIFIKFI-UHFFFAOYSA-N,CCCCC(CC)CCC,015869-86-0,-6.275999997,CCCCC(CC)CCC
752,B-3392,2.3.3-TRIMETHYLPENTANE,OKVWYBALHQFVFP-UHFFFAOYSA-N,CCC(C)(C)C(C)C,000560-21-4,-5.063,CCC(C)(C)C(C)C
753,B-3393,5-METHYLNONANE,TYSIILFJZXHVPU-UHFFFAOYSA-N,CCCCC(C)CCCC,015869-85-9,-6.307999999,CCCCC(C)CCCC
754,B-3394,2.4-DIMETHYLHEPTANE,AUKVIBNBLXQNIZ-UHFFFAOYSA-N,CCCC(C)CC(C)C,002213-23-2,-5.53,CCCC(C)CC(C)C
755,B-3395,2.5-Dimethyloctane,HOAAQUNESXYFDT-UHFFFAOYSA-N,CCCC(C)CCC(C)C,015869-89-3,-6.161999998,CCCC(C)CCC(C)C
756,B-3396,2.2.4-TRIMETHYLHEXANE,AFTPEBDOGXRMNQ-UHFFFAOYSA-N,CCC(C)CC(C)(C)C,016747-26-5,-5.385,CCC(C)CC(C)(C)C
757,B-3397,3.4-Dimethyloctane,QQCWGAMGBCGAQJ-UHFFFAOYSA-N,CCCCC(C)C(C)CC,015869-92-8,-6.271000003,CCCCC(C)C(C)CC
758,B-3400,3-Ethyl-5-methylheptane,VXARVYMIZCGZGG-UHFFFAOYSA-N,CCC(C)CC(CC)CC,052896-90-9,-6.154999998,CCC(C)CC(CC)CC
759,B-3401,3.4-DIMETHYLHEPTANE,MAKRYGRRIKSDES-UHFFFAOYSA-N,CCCC(C)C(C)CC,000922-28-1,-5.71,CCCC(C)C(C)CC
760,B-3402,3-METHYLNONANE,PLZDDPSCZHRBOY-UHFFFAOYSA-N,CCCCCCC(C)CC,005911-04-6,-6.367,CCCCCCC(C)CC
761,B-3403,2.3.5-TRIMETHYLHEXANE,ODGLTLJZCVNPBU-UHFFFAOYSA-N,CC(C)CC(C)C(C)C,001069-53-0,-5.5,CC(C)CC(C)C(C)C
762,B-3405,2.2-DIMETHYL-3-ETHYLPENTANE,CLZCPQKGOAXOJT-UHFFFAOYSA-N,CCC(CC)C(C)(C)C,016747-32-3,-5.55,CCC(CC)C(C)(C)C
763,B-3406,4-METHYLNONANE,IALRSQMWHFKJJA-UHFFFAOYSA-N,CCCCCC(C)CCC,017301-94-9,-6.322000002,CCCCCC(C)CCC
764,B-3407,2.3-DIMETHYL-3-ETHYLPENTANE,MMASVVOQIKCFJZ-UHFFFAOYSA-N,CCC(C)(CC)C(C)C,016747-33-4,-5.8,CCC(C)(CC)C(C)C
765,B-3409,4-Propylheptane,ABYGSZMCWVXFCQ-UHFFFAOYSA-N,CCCC(CCC)CCC,003178-29-8,-6.138000001,CCCC(CCC)CCC
766,B-3410,3.5-Dimethyloctane,VRHRGVJOUHJULC-UHFFFAOYSA-N,CCCC(C)CC(C)CC,015869-93-9,-6.184000002,CCCC(C)CC(C)CC
767,B-3411,2.3-Dimethylheptane,WBRFDUJXCLCKPX-UHFFFAOYSA-N,CCCCC(C)C(C)C,003074-71-3,-5.71,CCCCC(C)C(C)C
768,B-3412,2.2-DIMETHYLOCTANE,GPBUTTSWJNPYJL-UHFFFAOYSA-N,CCCCCCC(C)(C)C,015869-87-1,-6.124999999,CCCCCCC(C)(C)C
769,B-3413,3.3-Dimethyloctane,DBULLUBYDONGLT-UHFFFAOYSA-N,CCCCCC(C)(C)CC,004110-44-5,-6.221999998,CCCCCC(C)(C)CC
770,B-3414,2.2.3.4-TETRAMETHYLPENTANE,VZFMYOCAEQDWDY-UHFFFAOYSA-N,CC(C)C(C)C(C)(C)C,001186-53-4,-5.534999999,CC(C)C(C)C(C)(C)C
771,B-3415,3-ETHYL-3-METHYLHEPTANE,HSOMNBKXPGCNBH-UHFFFAOYSA-N,CCCCC(C)(CC)CC,017302-01-1,-6.279999998,CCCCC(C)(CC)CC
772,B-3416,2.6-DIMETHYLOCTANE,ZALHPSXXQIPKTQ-UHFFFAOYSA-N,CCC(C)CCCC(C)C,002051-30-1,-6.202999999,CCC(C)CCCC(C)C
773,B-3417,4.5-Dimethyloctane,DOYJTLUPPPUSMD-UHFFFAOYSA-N,CCCC(C)C(C)CCC,015869-96-2,-6.243,CCCC(C)C(C)CCC
774,B-3418,2.2.3.3-TETRAMETHYLPENTANE,QUKOJKFJIHSBKV-UHFFFAOYSA-N,CCC(C)(C)C(C)(C)C,007154-79-2,-5.7,CCC(C)(C)C(C)(C)C
775,B-3419,3-Ethyl-2-methylheptane,NKMJCVVUYDKHAV-UHFFFAOYSA-N,CCCCC(CC)C(C)C,014676-29-0,-6.221999998,CCCCC(CC)C(C)C
776,B-3420,2.3.3-TRIMETHYLHEXANE,DJYSEQMMCZAKGT-UHFFFAOYSA-N,CCCC(C)(C)C(C)C,016747-28-7,-5.639999999,CCCC(C)(C)C(C)C
777,B-3421,2.3.4-TRIMETHYLHEXANE,RUTNOQHQISEBGT-UHFFFAOYSA-N,CCC(C)C(C)C(C)C,000921-47-1,-5.675,CCC(C)C(C)C(C)C
778,B-3422,2.2.4.4-TETRAMETHYLPENTANE,GUMULFRCHLJNDY-UHFFFAOYSA-N,CC(C)(C)CC(C)(C)C,001070-87-7,-5.29,CC(C)(C)CC(C)(C)C
779,B-3423,2.3.3.4-TETRAMETHYLPENTANE,JLCYYQOQSAMWTA-UHFFFAOYSA-N,CC(C)C(C)(C)C(C)C,016747-38-9,-5.73,CC(C)C(C)(C)C(C)C
780,B-3424,2.4-DIMETHYL-3-ETHYLPENTANE,VLHAGZNBWKUMRW-UHFFFAOYSA-N,CCC(C(C)C)C(C)C,001068-87-7,-5.62,CCC(C(C)C)C(C)C
781,B-3425,4-ISOPROPYLHEPTANE,AZLAWGCUDHUQDB-UHFFFAOYSA-N,CCCC(CCC)C(C)C,052896-87-4,-6.168999999,CCCC(CCC)C(C)C
782,B-3427,3.3.6.6-TETRAMETHYLOCTANE,PAEUGKMMSQUAGH-UHFFFAOYSA-N,CCC(C)(C)CCC(C)(C)CC,062199-46-6,-6.921000006,CCC(C)(C)CCC(C)(C)CC
783,B-3428,2.2.4.6.6-PENTAMETHYLHEPTANE,VKPSKYDESGTTFR-UHFFFAOYSA-N,CC(CC(C)(C)C)CC(C)(C)C,013475-82-6,-6.823999993,CC(CC(C)(C)C)CC(C)(C)C
784,B-3430,Ethylarsine,OSAGMAAQMRQLLW-UHFFFAOYSA-N,CC[AsH2],000593-59-9,-2.9114,CC[AsH2]
785,B-3432,2.2.4.4.6.8.8-HEPTAMETHYLNONANE,VCLJODPNBNEBKW-UHFFFAOYSA-N,CC(CC(C)(C)C)CC(C)(C)CC(C)(C)C,004390-04-9,-3.354961969,CC(CC(C)(C)C)CC(C)(C)CC(C)(C)C
786,B-3433,1-methylcyclopropene,SHDPRTQPPWIEJG-UHFFFAOYSA-N,CC1=CC1,003100-04-7,-2.596407655,CC1=CC1
787,B-3434,PENTACOSANE,YKNWIILGEFFOPE-UHFFFAOYSA-N,CCCCCCCCCCCCCCCCCCCCCCCCC,000629-99-2,-7.84841797,CCCCCCCCCCCCCCCCCCCCCCCCC
788,B-3435,2.6.10.14-Tetramethylpentadecane,XOJVVFBFDXDTEG-UHFFFAOYSA-N,CC(C)CCCC(C)CCCC(C)CCCC(C)C,001921-70-6,-10.42985418,CC(C)CCCC(C)CCCC(C)CCCC(C)C
789,B-3440,3.7.7-trimethylbicyclo[4.1.0]hept-3-ene,KALFVDDBBPRATR-JGVFFNPUSA-N,C[C@H]1CC[C@@H]2C(=C1)C2(C)C,013466-78-9,-4.67040017,CC1C=C2C(CC1)C2(C)C
790,B-3441,Dicyclopentadiene,HECLRDQVFMWTQS-UHFFFAOYSA-N,C1C=CC2C1C3CC2C=C3,000077-73-6,-3.69800135,C1=CC2C3C=CC(C3)C2C1
791,B-3442,1.3-CYCLOHEPTADIENE,GWYPDXLJACEENP-UHFFFAOYSA-N,C1CC=CC=CC1,004054-38-0,-2.182,C1=CCCCC=C1
792,B-3444,(Z)-tricos-9-ene,IGOWHGRNPLFNDJ-ZPHPHTNESA-N,CCCCCCCCCCCCC/C=C\CCCCCCCC,027519-02-4,-10.90662645,CCCCCCCCC=CCCCCCCCCCCCCC
793,B-3458,2.2.5.5-TETRAMETHYL-3-HEXYNE,FXVDWKZNFZMSOU-UHFFFAOYSA-N,CC(C)(C)C#CC(C)(C)C,017530-24-4,-3.83,CC(C)(C)C#CC(C)(C)C
794,B-3465,2.2.5-TRIMETHYL-3-HEXYNE,DKFPMSNUJIRAMR-UHFFFAOYSA-N,CC(C)C#CC(C)(C)C,017530-23-3,-3.62,CC(C)C#CC(C)(C)C
795,B-3478,2-IODOBUTANE,IQRUSQUYPCHEKN-UHFFFAOYSA-N,CCC(C)I,000513-48-4,-2.9426,CCC(C)I
796,B-3484,Piperidine. 1.1'-(1.2-ethanediyl)bis-,UYMQPNRUQXPLCY-UHFFFAOYSA-N,C1CCN(CC1)CCN2CCCCC2,001932-04-3,-0.594,C1CCN(CCN2CCCCC2)CC1
797,B-3486,Methylene. (methyleneamino)-,NYVSDPNXBIEFPW-UHFFFAOYSA-N,CN=C,001761-67-7,0.3249,C=NC
798,B-3500,1-CHLORODODECANE,YAYNEUUHHLGGAH-UHFFFAOYSA-N,CCCCCCCCCCCCCl,000112-52-7,-4.48,CCCCCCCCCCCCCl
799,B-3503,2-Phenyloctane,GTYIGAUPHJCMLF-UHFFFAOYSA-N,CCCCCCC(C)C1=CC=CC=C1,000777-22-0,-5.799999999,CCCCCCC(C)c1ccccc1
800,B-3514,DIBROMOETHANE,APQIUTYORBAGEZ-UHFFFAOYSA-N,CC(Br)Br,025620-62-6,-1.179666305,CC(Br)Br
801,B-3515,beta-Ocimene,IHPKGUQCSIINRJ-CSKARUKUSA-N,CC(=CC/C=C(\C)/C=C)C,013877-91-3,-4.831097102,C=CC(C)=CCC=C(C)C
802,B-3537,1.6-DIMETHYLNAPHTHALENE,CBMXCNPQDUJNHT-UHFFFAOYSA-N,CC1=CC2=CC=CC(=C2C=C1)C,000575-43-9,-4.89,Cc1ccc2c(C)cccc2c1
803,B-3565,3-chloropyridine,PWRBCZZQRRPXAB-UHFFFAOYSA-N,C1=CC(=CN=C1)Cl,000626-60-8,-1.06,Clc1cccnc1