,C_ID,Name,InChIKey,SMILES,CAS,LogS,smiles_canon
2422,B-7175,1.1.2.2.3.3.4.4.4-nonafluoro-N-(2-hydroxyethyl)-N-methylbutane-1-sulfonamide,DSRUAYIFDCHEEV-UHFFFAOYSA-N,CN(CCO)S(=O)(=O)C(C(C(C(F)(F)F)(F)F)(F)F)(F)F,034454-97-2,-3.40368103,CN(CCO)S(=O)(=O)C(F)(F)C(F)(F)C(F)(F)C(F)(F)F
2423,B-7176,N-(3-dimethylaminopropyl)octadecanamide,WWVIUVHFPSALDO-UHFFFAOYSA-N,CCCCCCCCCCCCCCCCCC(=O)NCCCN(C)C,007651-02-7,-4.566608348,CCCCCCCCCCCCCCCCCC(=O)NCCCN(C)C
2424,B-7177,1-Hydroxybenzotriazole,ASOKPJOREAFHNY-UHFFFAOYSA-N,C1=CC=C2C(=C1)N=NN2O,002592-95-2,-1.50743265,On1nnc2ccccc21
2425,B-7178,2-hydroxypropyl [(1R.2S.5R)-5-methyl-2-propan-2-ylcyclohexyl] carbonate,FLYJSXDJKBHQAU-IBSWDFHHSA-N,C[C@@H]1CC[C@H]([C@@H](C1)OC(=O)OCC(C)O)C(C)C,260781-16-6,-3.463807267,CC(O)COC(=O)OC1CC(C)CCC1C(C)C
2426,B-7179,2.2-bis(prop-2-enoxymethyl)butan-1-ol,BDKDHWOPFRTWPP-UHFFFAOYSA-N,CCC(CO)(COCC=C)COCC=C,000682-09-7,-1.718246421,C=CCOCC(CC)(CO)COCC=C
2427,B-7180,1-[chloro-(4-methoxyphenyl)-phenylmethyl]-4-methoxybenzene,JBWYRBLDOOOJEU-UHFFFAOYSA-N,COC1=CC=C(C=C1)C(C2=CC=CC=C2)(C3=CC=C(C=C3)OC)Cl,040615-36-9,-5.052864318,COc1ccc(C(Cl)(c2ccccc2)c2ccc(OC)cc2)cc1
2428,B-7181,Ethyl 2-methyl-4-oxo-6-pentylcyclohex-2-ene-1-carboxylate,ZJLHQWGPVWXKME-UHFFFAOYSA-N,CCCCCC1CC(=O)C=C(C1C(=O)OCC)C,059151-19-8,-3.18716428,CCCCCC1CC(=O)C=C(C)C1C(=O)OCC
2429,B-7182,(1R.2S.5R)-N-(4-methoxyphenyl)-5-methyl-2-propan-2-ylcyclohexane-1-carboxamide,HNSGVPAAXJJOPQ-XOKHGSTOSA-N,C[C@@H]1CC[C@H]([C@@H](C1)C(=O)NC2=CC=C(C=C2)OC)C(C)C,068489-09-8,-5.737247868,COc1ccc(NC(=O)C2CC(C)CCC2C(C)C)cc1
2430,B-7183,(E)-2-methylpent-2-enoic acid,JJYWRQLLQAKNAD-SNAWJCMRSA-N,CC/C=C(\C)/C(=O)O,016957-70-3,-1.162118196,CCC=C(C)C(=O)O
2431,B-7184,2-(2-hydroxyethyl-octadecylamino)ethanol,NDLNTMNRNCENRZ-UHFFFAOYSA-N,CCCCCCCCCCCCCCCCCCN(CCO)CCO,010213-78-2,-5.775269091,CCCCCCCCCCCCCCCCCCN(CCO)CCO
2432,B-7185,1.4.7.10-tetrazacyclododecane,QBPPRVHXOZRESW-UHFFFAOYSA-N,C1CNCCNCCNCCN1,000294-90-6,-0.037559626,C1CNCCNCCNCCN1
2433,B-7186,1.3-dimethyl-1.3-di(phenyl)urea,ADCBKYIHQQCFHE-UHFFFAOYSA-N,CN(C1=CC=CC=C1)C(=O)N(C)C2=CC=CC=C2,000611-92-7,-3.497554328,CN(C(=O)N(C)c1ccccc1)c1ccccc1
2434,B-7187,5-Amino-2-methylphenol,DBFYESDCPWWCHN-UHFFFAOYSA-N,CC1=C(C=C(C=C1)N)O,002835-95-2,-1.476607406,Cc1ccc(N)cc1O
2435,B-7188,morpholin-4-yl morpholine-4-carbodithioate,HOEFWOBLOGZQIQ-UHFFFAOYSA-N,C1COCCN1C(=S)SN2CCOCC2,013752-51-7,-3.291273733,S=C(SN1CCOCC1)N1CCOCC1
2436,B-7189,1-[2-dimethylamino-1-(4-methoxyphenyl)ethyl]cyclohexan-1-ol,PNVNVHUZROJLTJ-UHFFFAOYSA-N,CN(C)CC(C1=CC=C(C=C1)OC)C2(CCCCC2)O,093413-69-5,-2.743277811,COc1ccc(C(CN(C)C)C2(O)CCCCC2)cc1
2437,B-7190,2-tert-butyl-6-(5-chlorobenzotriazol-2-yl)-4-methylphenol,OCWYEMOEOGEQAN-UHFFFAOYSA-N,CC1=CC(=C(C(=C1)N2N=C3C=CC(=CC3=N2)Cl)O)C(C)(C)C,003896-11-5,-7.897354472,Cc1cc(-n2nc3ccc(Cl)cc3n2)c(O)c(C(C)(C)C)c1
2438,B-7191,(4-cyanophenyl) acetate,CJGXWABHYYJNJH-UHFFFAOYSA-N,CC(=O)OC1=CC=C(C=C1)C#N,013031-41-9,-1.799017293,CC(=O)Oc1ccc(C#N)cc1
2439,B-7192,3-[(E)-dodec-2-enyl]oxolane-2.5-dione,UYCICMIUKYEYEU-ZHACJKMWSA-N,CCCCCCCCC/C=C/CC1CC(=O)OC1=O,019780-11-1,-4.425500962,CCCCCCCCCC=CCC1CC(=O)OC1=O
2440,B-7193,4-methylbenzene-1.3-diamine,VOZKAJLKRJDJLL-UHFFFAOYSA-N,CC1=C(C=C(C=C1)N)N,000095-80-7,-0.507178844,Cc1ccc(N)cc1N
2441,B-7194,di(propan-2-yloxy)-sulfanyl-sulfanylidenephosphorane,SZXCCXFNQHQRGF-UHFFFAOYSA-N,CC(C)OP(=S)(OC(C)C)S,000107-56-2,-0.55282451,CC(C)OP(=S)(S)OC(C)C
2442,B-7195,O1-nonyl O2-octyl benzene-1.2-dicarboxylate,ZKHMKHBSASMXEZ-UHFFFAOYSA-N,CCCCCCCCCOC(=O)C1=CC=CC=C1C(=O)OCCCCCCCC,071662-46-9,-4.780938839,CCCCCCCCCOC(=O)c1ccccc1C(=O)OCCCCCCCC
2443,B-7196,2-(7-methoxynaphthalen-1-yl)acetonitrile,PYJMGUQHJINLLD-UHFFFAOYSA-N,COC1=CC2=C(C=CC=C2CC#N)C=C1,138113-08-3,-4.158252408,COc1ccc2cccc(CC#N)c2c1
2444,B-7198,[3-(benzoyloxy)-2.2-dimethylpropyl] benzoate,DYJIIMFHSZKBDY-UHFFFAOYSA-N,CC(C)(COC(=O)C1=CC=CC=C1)COC(=O)C2=CC=CC=C2,004196-89-8,-5.430203821,CC(C)(COC(=O)c1ccccc1)COC(=O)c1ccccc1
2445,B-7199,2-(4-tert-butyl-3-hydroxy-2.6-dimethylphenyl)acetonitrile,OUKJZHRCKQJXSU-UHFFFAOYSA-N,CC1=CC(=C(C(=C1CC#N)C)O)C(C)(C)C,055699-10-0,-4.257898466,Cc1cc(C(C)(C)C)c(O)c(C)c1CC#N
2446,B-7200,(2R)-2-(2-chlorophenyl)-2-hydroxyacetic acid,RWOLDZZTBNYTMS-SSDOTTSWSA-N,C1=CC=C(C(=C1)[C@H](C(=O)O)O)Cl,052950-18-2,-0.439029064,O=C(O)C(O)c1ccccc1Cl
2447,B-7201,N-methyl-3-(4-methylphenyl)-1.5-di(phenyl)-4.5-dihydropyrazol-4-amine,HDSOFYVWMRYEQH-UHFFFAOYSA-N,CC1=CC=C(C=C1)C2=NN(C(C2NC)C3=CC=CC=C3)C4=CC=CC=C4,000561-41-1,-3.357241963,CNC1C(c2ccc(C)cc2)=NN(c2ccccc2)C1c1ccccc1
2448,B-7202,methyl (Z.12R)-12-hydroxyoctadec-9-enoate,XKGDWZQXVZSXAO-ADYSOMBNSA-N,CCCCCC[C@H](C/C=C\CCCCCCCC(=O)OC)O,000141-24-2,-6.526355399,CCCCCCC(O)CC=CCCCCCCCC(=O)OC
2449,B-7203,1-Chloro-2.5-dimethoxy-4-nitrobenzene,ORLPGMKKCAEWOW-UHFFFAOYSA-N,COC1=CC(=C(C=C1[N+](=O)[O-])OC)Cl,006940-53-0,-3.179313363,COc1cc([N+](=O)[O-])c(OC)cc1Cl
2450,B-7204,imidazolidin-2-one,YAMHXTCMCPHKLN-UHFFFAOYSA-N,C1CNC(=O)N1,000120-93-4,1.042754755,O=C1NCCN1
2451,B-7205,4-methyl-1-phenylpyrazolidin-3-one,ZZEYCGJAYIHIAZ-UHFFFAOYSA-N,CC1CN(NC1=O)C2=CC=CC=C2,002654-57-1,-2.368216815,CC1CN(c2ccccc2)NC1=O
2452,B-7206,1-phenylpyrazolidin-3-one,CMCWWLVWPDLCRM-UHFFFAOYSA-N,C1CN(NC1=O)C2=CC=CC=C2,000092-43-3,-1.796729806,O=C1CCN(c2ccccc2)N1
2453,B-7207,N-(3-diethylaminophenyl)acetamide,FPUKYOSOAAPHTN-UHFFFAOYSA-N,CCN(CC)C1=CC=CC(=C1)NC(=O)C,006375-46-8,-2.46937382,CCN(CC)c1cccc(NC(C)=O)c1
2454,B-7208,(7S.8S)-N-[(5-tert-butyl-2-methoxyphenyl)methyl]-7-[di(phenyl)methyl]-1-azabicyclo[2.2.2]octan-8-amine,OMPCVMLFFSQFIX-CONSDPRKSA-N,CC(C)(C)C1=CC(=C(C=C1)OC)CN[C@@H]2[C@@H](N3CCC2CC3)C(C4=CC=CC=C4)C5=CC=CC=C5,147116-67-4,-4.685900036,COc1ccc(C(C)(C)C)cc1CNC1C2CCN(CC2)C1C(c1ccccc1)c1ccccc1
2455,B-7209,12-Aminododecanoic acid,PBLZLIFKVPJDCO-UHFFFAOYSA-N,C(CCCCCC(=O)O)CCCCCN,000693-57-2,-3.196394058,NCCCCCCCCCCCC(=O)O
2456,B-7210,3-chloro-4-[(3-fluorophenyl)methoxy]aniline,AYPFEYDGZDPAPE-UHFFFAOYSA-N,C1=CC(=CC(=C1)F)COC2=C(C=C(C=C2)N)Cl,202197-26-0,-4.693291298,Nc1ccc(OCc2cccc(F)c2)c(Cl)c1
2457,B-7211,9.9-dimethyldecanoic acid,FZUWYUIYVKESIP-UHFFFAOYSA-N,CC(C)(C)CCCCCCCC(=O)O,068938-07-8,-1.540549366,CC(C)(C)CCCCCCCC(=O)O
2458,B-7212,1.4-bis[(2.4.6-trimethylphenyl)amino]anthracene-9.10-dione,DMDRBXCDTZRMHZ-UHFFFAOYSA-N,CC1=CC(=C(C(=C1)C)NC2=C3C(=C(C=C2)NC4=C(C=C(C=C4C)C)C)C(=O)C5=CC=CC=C5C3=O)C,000116-75-6,-7.825070483,Cc1cc(C)c(Nc2ccc(Nc3c(C)cc(C)cc3C)c3c2C(=O)c2ccccc2C3=O)c(C)c1
2459,B-7213,3.6-dibromohexacyclo[10.10.2.02.7.09.23.013.18.020.24]tetracosa-1(22).2.4.6.9(23).10.12(24).13.15.17.20-undecaene-8.19-dione,XMDMAACDNUUUHQ-UHFFFAOYSA-N,C1=CC=C2C(=C1)C3=C4C(=CC=C5C4=C(C=C3)C(=O)C6=C(C=CC(=C56)Br)Br)C2=O,001324-11-4,-5.275355482,O=C1c2ccccc2-c2ccc3c4c(ccc1c24)-c1c(Br)ccc(Br)c1C3=O
2460,B-7214,2-ethylhexyl 4-aminobenzoate,ZJQXUTDROPGVLH-UHFFFAOYSA-N,CCCCC(CC)COC(=O)C1=CC=C(C=C1)N,026218-04-2,-5.054390523,CCCCC(CC)COC(=O)c1ccc(N)cc1
2461,B-7215,3-trimethoxysilylpropyl 2-methylprop-2-enoate,XDLMVUHYZWKMMD-UHFFFAOYSA-N,CC(=C)C(=O)OCCC[Si](OC)(OC)OC,002530-85-0,-4.517694567,C=C(C)C(=O)OCCC[Si](OC)(OC)OC
2462,B-7216,2-methylpentanedinitrile,FPPLREPCQJZDAQ-UHFFFAOYSA-N,CC(CCC#N)C#N,004553-62-2,-0.315484676,CC(C#N)CCC#N
2463,B-7217,2-chloro-7-cyclopentyl-N.N-dimethylpyrrolo[2.3-d]pyrimidine-6-carboxamide,PMDDQOHZLBZUSO-UHFFFAOYSA-N,CN(C)C(=O)C1=CC2=CN=C(N=C2N1C3CCCC3)Cl,1211443-61-6,-2.709126835,CN(C)C(=O)c1cc2cnc(Cl)nc2n1C1CCCC1
2464,B-7218,1.4-bis[(4-methylphenyl)amino]anthracene-9.10-dione,TVRGPOFMYCMNRB-UHFFFAOYSA-N,CC1=CC=C(C=C1)NC2=C3C(=C(C=C2)NC4=CC=C(C=C4)C)C(=O)C5=CC=CC=C5C3=O,000128-80-3,-7.621689236,Cc1ccc(Nc2ccc(Nc3ccc(C)cc3)c3c2C(=O)c2ccccc2C3=O)cc1
2465,B-7219,2-AMINO-6-CHLORO-4-NITROPHENOL,TWLMSPNQBKSXOP-UHFFFAOYSA-N,C1=C(C=C(C(=C1N)O)Cl)[N+](=O)[O-],006358-09-4,-2.622260318,Nc1cc([N+](=O)[O-])cc(Cl)c1O
2466,B-7220,2-[(2-hydroxyphenyl)methyl]phenol,MQCPOLNSJCWPGT-UHFFFAOYSA-N,C1=CC=C(C(=C1)CC2=CC=CC=C2O)O,001333-16-0,-1.828787013,Oc1ccccc1Cc1ccccc1O
2467,B-7221,diethyl pyridine-2.4-dicarboxylate,MUUDQLHCIAOWPR-UHFFFAOYSA-N,CCOC(=O)C1=CC(=NC=C1)C(=O)OCC,041438-38-4,-1.2184149,CCOC(=O)c1ccnc(C(=O)OCC)c1
2468,B-7222,(3-fluorophenyl)boronic acid,KNXQDJCZSVHEIW-UHFFFAOYSA-N,B(C1=CC(=CC=C1)F)(O)O,000768-35-4,-0.712912368,OB(O)c1cccc(F)c1
2469,B-7223,4-hydroxy-3-methoxy-5-nitrobenzaldehyde,ZEHYRTJBFMZHCY-UHFFFAOYSA-N,COC1=CC(=CC(=C1O)[N+](=O)[O-])C=O,006635-20-7,-2.449692133,COc1cc(C=O)cc([N+](=O)[O-])c1O
2470,B-7224,bis(8-methylnonyl) decanedioate,OAXZVLMNNOOMGN-UHFFFAOYSA-N,CC(C)CCCCCCCOC(=O)CCCCCCCCC(=O)OCCCCCCCC(C)C,028473-19-0,-6.706030883,CC(C)CCCCCCCOC(=O)CCCCCCCCC(=O)OCCCCCCCC(C)C
2471,B-7225,2-[(4-methyl-2-nitrophenyl)amino]ethanol,SCZQUWZLEIYDBD-UHFFFAOYSA-N,CC1=CC(=C(C=C1)NCCO)[N+](=O)[O-],100418-33-5,-2.747403839,Cc1ccc(NCCO)c([N+](=O)[O-])c1
2472,B-7226,1-chloro-4-(4-chlorophenyl)sulfonylbenzene,GPAPPPVRLPGFEQ-UHFFFAOYSA-N,C1=CC(=CC=C1S(=O)(=O)C2=CC=C(C=C2)Cl)Cl,000080-07-9,-5.523625493,O=S(=O)(c1ccc(Cl)cc1)c1ccc(Cl)cc1
2473,B-7227,12-Hydroxyoctadecanoic acid,ULQISTXYYBZJSJ-UHFFFAOYSA-N,CCCCCCC(CCCCCCCCCCC(=O)O)O,000106-14-9,-5.48836662,CCCCCCC(O)CCCCCCCCCCC(=O)O
2474,B-7228,2-(hydroxyiminomethyl)-4-nonylphenol,MJUVQSGLWOGIOB-UHFFFAOYSA-N,CCCCCCCCCC1=CC(=C(C=C1)O)C=NO,174333-80-3,-5.818521153,CCCCCCCCCc1ccc(O)c(C=NO)c1
2475,B-7229,[2-(4-methyl-2-phenylpiperazin-1-yl)pyridin-3-yl]methanol,PYZPABZGIRHQTA-UHFFFAOYSA-N,CN1CCN(C(C1)C2=CC=CC=C2)C3=C(C=CC=N3)CO,061337-89-1,-2.0324018,CN1CCN(c2ncccc2CO)C(c2ccccc2)C1
2476,B-7230,methyl 2-(4-amino-3.5-dichloro-6-fluoropyridin-2-yl)oxyacetate,GIIKFBXVGYJLEK-UHFFFAOYSA-N,COC(=O)COC1=NC(=C(C(=C1Cl)N)Cl)F,069184-17-4,-3.982689977,COC(=O)COc1nc(F)c(Cl)c(N)c1Cl
2477,B-7231,14-octadecyl-8-thia-14-azapentacyclo[10.6.2.02.7.09.19.016.20]icosa-1(19).2.4.6.9.11.16(20).17-octaene-13.15-dione,YDQLECBCTASDOZ-UHFFFAOYSA-N,CCCCCCCCCCCCCCCCCCN1C(=O)C2=C3C(=CC=C4C3=C(C=C2)C5=CC=CC=C5S4)C1=O,027870-92-4,-7.966780575,CCCCCCCCCCCCCCCCCCn1c(=O)c2ccc3sc4ccccc4c4ccc(c1=O)c2c34
2478,B-7232,1-[[2-methyl-4-[(2-methylphenyl)diazenyl]phenyl]diazenyl]naphthalen-2-ol,RCTGMCJBQGBLKT-UHFFFAOYSA-N,CC1=CC=CC=C1N=NC2=CC(=C(C=C2)N=NC3=C(C=CC4=CC=CC=C43)O)C,000085-83-6,-7.218567698,Cc1ccccc1N=Nc1ccc(N=Nc2c(O)ccc3ccccc23)c(C)c1
2479,B-7233,3.4-dimethoxybicyclo[4.2.0]octa-1.3.5-triene-7-carbonitrile,HJTHVTHXHHFXMJ-UHFFFAOYSA-N,COC1=C(C=C2C(CC2=C1)C#N)OC,035202-54-1,-2.357343062,COc1cc2c(cc1OC)C(C#N)C2
2480,B-7234,3-[(E)-4.6.8-trimethylnon-2-en-2-yl]oxolane-2.5-dione,WBRBLKRDTHYRRV-MDWZMJQESA-N,CC(C)CC(C)CC(C)/C=C(\C)/C1CC(=O)OC1=O,026544-38-7,-4.124470967,CC(=CC(C)CC(C)CC(C)C)C1CC(=O)OC1=O
2481,B-7235,1.6-Dioxacycloheptadecan-7-one,MRMOPGVGWFNHIN-UHFFFAOYSA-N,C1CCCCCOCCCCOC(=O)CCCC1,006707-60-4,-4.017956489,O=C1CCCCCCCCCCOCCCCO1
2482,B-7236,N-(4-fluorophenyl)-2-hydroxy-N-propan-2-ylacetamide,RISGISSUGUGJMO-UHFFFAOYSA-N,CC(C)N(C1=CC=C(C=C1)F)C(=O)CO,054041-17-7,-1.178638871,CC(C)N(C(=O)CO)c1ccc(F)cc1
2483,B-7237,(4-formyl-2-methoxyphenyl) 2-methylpropanoate,BGKAKRUFBSTALK-UHFFFAOYSA-N,CC(C)C(=O)OC1=C(C=C(C=C1)C=O)OC,020665-85-4,-2.588667997,COc1cc(C=O)ccc1OC(=O)C(C)C
2484,B-7238,3-dodecyl-1-(2.2.6.6-tetramethylpiperidin-4-yl)pyrrolidine-2.5-dione,FBIXXCXCZOZFCO-UHFFFAOYSA-N,CCCCCCCCCCCCC1CC(=O)N(C1=O)C2CC(NC(C2)(C)C)(C)C,079720-19-7,-4.809880868,CCCCCCCCCCCCC1CC(=O)N(C2CC(C)(C)NC(C)(C)C2)C1=O
2485,B-7239,4-naphthalen-2-yl-1.3-thiazol-2-amine,GWDNDNTTXIIXRS-UHFFFAOYSA-N,C1=CC=C2C=C(C=CC2=C1)C3=CSC(=N3)N,021331-43-1,-4.849525748,Nc1nc(-c2ccc3ccccc3c2)cs1
2486,B-7240,1.2.4.9-tetrahydrocarbazol-3-one,MTTUMRIEUVCVNO-UHFFFAOYSA-N,C1CC2=C(CC1=O)C3=CC=CC=C3N2,051145-61-0,-3.511063495,O=C1CCc2[nH]c3ccccc3c2C1
2487,B-7241,1.3.2-dioxathiolane 2.2-dioxide,ZPFAVCIQZKRBGF-UHFFFAOYSA-N,C1COS(=O)(=O)O1,001072-53-3,0.759887237,O=S1(=O)OCCO1
2488,B-7242,1-(2-hydroxypropyl-tridecylamino)propan-2-ol,WFAMPSHDEGZREP-UHFFFAOYSA-N,CCCCCCCCCCCCCN(CC(C)O)CC(C)O,062889-66-1,-4.465628464,CCCCCCCCCCCCCN(CC(C)O)CC(C)O
2489,B-7243,1-(4-chlorophenyl)sulfanylpropan-2-one,VIUDWXCHYJJHLD-UHFFFAOYSA-N,CC(=O)CSC1=CC=C(C=C1)Cl,025784-83-2,-2.679260212,CC(=O)CSc1ccc(Cl)cc1
2490,B-7244,1-methyl-2-[(E)-2-nitroethenyl]pyrrole,NHVYARKRYOUKFA-GQCTYLIASA-N,CN1C=CC=C1/C=C/[N+](=O)[O-],031775-20-9,-7.156972942,Cn1cccc1C=C[N+](=O)[O-]
2491,B-7245,2-[3-(2-hydroxypropan-2-yl)phenyl]propan-2-ol,UGPWRRVOLLMHSC-UHFFFAOYSA-N,CC(C)(C1=CC(=CC=C1)C(C)(C)O)O,001999-85-5,-1.797050753,CC(C)(O)c1cccc(C(C)(C)O)c1
2492,B-7246,1-(benzoyloxy)propan-2-yl benzoate,UMVMVEZHMZTUHD-UHFFFAOYSA-N,CC(COC(=O)C1=CC=CC=C1)OC(=O)C2=CC=CC=C2,019224-26-1,-4.567302938,CC(COC(=O)c1ccccc1)OC(=O)c1ccccc1
2493,B-7248,2-(4.5-dihydroimidazol-1-yl)ethanol,GOHZKUSWWGUUNR-UHFFFAOYSA-N,C1CN(C=N1)CCO,061791-38-6,-4.358493737,OCCN1C=NCC1
2494,B-7249,2-ethyl-2-(prop-2-enoxymethyl)propane-1.3-diol,LZDXRPVSAKWYDH-UHFFFAOYSA-N,CCC(CO)(CO)COCC=C,000682-11-1,-0.199753682,C=CCOCC(CC)(CO)CO
2495,B-7250,(4-chlorophenyl)-(4-hydroxyphenyl)methanone,RUETVLNXAGWCDS-UHFFFAOYSA-N,C1=CC(=CC=C1C(=O)C2=CC=C(C=C2)Cl)O,042019-78-3,-2.521634697,O=C(c1ccc(O)cc1)c1ccc(Cl)cc1
2496,B-7251,2-hydroxy-4-methylbenzamide,OLEJYVBTZPUQDX-UHFFFAOYSA-N,CC1=CC(=C(C=C1)C(=O)N)O,049667-22-3,-2.916999009,Cc1ccc(C(N)=O)c(O)c1
2497,B-7252,4.5.6.7-tetrahydro-1.3-benzothiazole-2.6-diamine,DRRYZHHKWSHHFT-UHFFFAOYSA-N,C1CC2=C(CC1N)SC(=N2)N,104617-49-4,-1.284030609,Nc1nc2c(s1)CC(N)CC2
2498,B-7253,3-(2-chloroethyl)-2-methylpyrido[2.1-b]pyrimidin-4-one,LFTGLYCNMGGMKL-UHFFFAOYSA-N,CC1=C(C(=O)N2C=CC=CC2=N1)CCCl,041078-70-0,-2.470873949,Cc1nc2ccccn2c(=O)c1CCCl
2499,B-7254,17-hydroxy-3-methoxy-13-methyl-4.6.7.8.9.11.12.14.15.16-decahydro-1H-cyclopenta[a]phenanthrene-17-carbonitrile,MEEGGHJZTZFSBQ-UHFFFAOYSA-N,CC12CCC3C(C1CCC2(C#N)O)CCC4=C3CC=C(C4)OC,017006-17-6,-5.683185635,COC1=CCC2=C(CCC3C2CCC2(C)C3CCC2(O)C#N)C1
2500,B-7255,N.N'-di(phenyl)benzene-1.4-diamine,UTGQNNCQYDRXCH-UHFFFAOYSA-N,C1=CC=C(C=C1)NC2=CC=C(C=C2)NC3=CC=CC=C3,000074-31-7,-6.239445971,c1ccc(Nc2ccc(Nc3ccccc3)cc2)cc1
2501,B-7256,2-phenylethyl 2-phenylacetate,ZOZIRNMDEZKZHM-UHFFFAOYSA-N,C1=CC=C(C=C1)CCOC(=O)CC2=CC=CC=C2,000102-20-5,-4.188746347,O=C(Cc1ccccc1)OCCc1ccccc1
2502,B-7257,ethyl 4-[(methyl-phenylamino)methylideneamino]benzoate,GNGYPJUKIKDJQT-UHFFFAOYSA-N,CCOC(=O)C1=CC=C(C=C1)N=CN(C)C2=CC=CC=C2,057834-33-0,-3.910445089,CCOC(=O)c1ccc(N=CN(C)c2ccccc2)cc1
2503,B-7258,2-tert-butyl-4-(5-tert-butyl-4-hydroxy-2-methylphenyl)sulfanyl-5-methylphenol,HXIQYSLFEXIOAV-UHFFFAOYSA-N,CC1=CC(=C(C=C1SC2=CC(=C(C=C2C)O)C(C)(C)C)C(C)(C)C)O,000096-69-5,-7.11205518,Cc1cc(O)c(C(C)(C)C)cc1Sc1cc(C(C)(C)C)c(O)cc1C
2504,B-7259,3.10.17.24-tetrazaoctacyclo[13.13.2.02.10.04.9.012.29.017.25.018.23.026.30]triaconta-1(29).2.4.6.8.12.14.18.20.22.24.26(30).27-tridecaene-11.16-dione,YMEPVPIIHONYLV-UHFFFAOYSA-N,C1=CC=C2C(=C1)N=C3N2C(=O)C4=CC=C5C6=C(C=CC3=C46)C7=NC8=CC=CC=C8N7C5=O,008005-56-9,-7.7579929,O=c1c2ccc3c(=O)n4c5ccccc5nc4c4ccc(c2c34)c2nc3ccccc3n12
2505,B-7260,2.3.4.9-tetrahydro-1H-carbazol-3-ol,COPGJLUCUMWXTH-UHFFFAOYSA-N,C1CC2=C(CC1O)C3=CC=CC=C3N2,014384-34-0,-2.697212643,OC1CCc2[nH]c3ccccc3c2C1
2506,B-7261,N-(2.5-Dimethoxyphenyl)acetamide,HOZRMSVNIKYCMB-UHFFFAOYSA-N,CC(=O)NC1=C(C=CC(=C1)OC)OC,003467-59-2,-1.591548965,COc1ccc(OC)c(NC(C)=O)c1
2507,B-7262,3.10.17.24-tetrazaoctacyclo[13.13.2.02.10.04.9.012.29.016.24.018.23.026.30]triaconta-1(29).2.4.6.8.12.14.16.18.20.22.26(30).27-tridecaene-11.25-dione,DGBWPZSGHAXYGK-UHFFFAOYSA-N,C1=CC=C2C(=C1)N=C3N2C(=O)C4=CC=C5C6=C(C=CC3=C46)C(=O)N7C5=NC8=CC=CC=C87,004424-06-0,-7.7579929,O=c1c2ccc3c4c(ccc(c24)c2nc4ccccc4n12)c(=O)n1c2ccccc2nc31
2508,B-7263,2-(2-oxopyrrolidin-1-yl)butanamide,HPHUVLMMVZITSG-UHFFFAOYSA-N,CCC(C(=O)N)N1CCCC1=O,033996-58-6,0.37215726,CCC(C(N)=O)N1CCCC1=O
2509,B-7264,1.7-Dioxacycloheptadecan-8-one,MKEIDVFLAWJKMY-UHFFFAOYSA-N,C1CCCCC(=O)OCCCCCOCCCC1,003391-83-1,-3.883846789,O=C1CCCCCCCCCOCCCCCO1
2510,B-7265,Trihexyl phosphate,SFENPMLASUEABX-UHFFFAOYSA-N,CCCCCCOP(=O)(OCCCCCC)OCCCCCC,002528-39-4,-6.146720134,CCCCCCOP(=O)(OCCCCCC)OCCCCCC
2511,B-7266,phenylmethylsulfinylmethylbenzene,HTMQZWFSTJVJEQ-UHFFFAOYSA-N,C1=CC=C(C=C1)CS(=O)CC2=CC=CC=C2,000621-08-9,-2.858793637,O=S(Cc1ccccc1)Cc1ccccc1
2512,B-7267,Hexyl 2-hydroxybenzoate,DUKPKQFHJQGTGU-UHFFFAOYSA-N,CCCCCCOC(=O)C1=CC=CC=C1O,006259-76-3,-5.045877035,CCCCCCOC(=O)c1ccccc1O
2513,B-7268,2-[(3.5-dimethylpyrazole-1-carbonyl)amino]ethyl 2-methylprop-2-enoate,VBYHQOZQQATUHH-UHFFFAOYSA-N,CC1=CC(=NN1C(=O)NCCOC(=O)C(=C)C)C,217437-44-0,-2.442558587,C=C(C)C(=O)OCCNC(=O)n1nc(C)cc1C
2514,B-7269,5-methyl-2-[(E)-2-(5-methyl-1.3-benzoxazol-2-yl)ethenyl]-1.3-benzoxazole,VKRZNAWSCAUDRQ-BQYQJAHWSA-N,CC1=CC2=C(C=C1)OC(=N2)/C=C/C3=NC4=C(O3)C=CC(=C4)C,001041-00-5,-6.000480154,Cc1ccc2oc(C=Cc3nc4cc(C)ccc4o3)nc2c1
2515,B-7270,bis(4-diethylaminophenyl)methanone,VYHBFRJRBHMIQZ-UHFFFAOYSA-N,CCN(CC)C1=CC=C(C=C1)C(=O)C2=CC=C(C=C2)N(CC)CC,000090-93-7,-6.512037315,CCN(CC)c1ccc(C(=O)c2ccc(N(CC)CC)cc2)cc1
2516,B-7271,tris(2-methylpropyl) phosphate,HRKAMJBPFPHCSD-UHFFFAOYSA-N,CC(C)COP(=O)(OCC(C)C)OCC(C)C,000126-71-6,-3.003794474,CC(C)COP(=O)(OCC(C)C)OCC(C)C
2517,B-7272,1.3.5-tri(prop-2-enyl)-1.3.5-triazinane-2.4.6-trione,KOMNUTZXSVSERR-UHFFFAOYSA-N,C=CCN1C(=O)N(C(=O)N(C1=O)CC=C)CC=C,001025-15-6,-1.852599879,C=CCn1c(=O)n(CC=C)c(=O)n(CC=C)c1=O
2518,B-7273,[3-methyl-4-(2.2.2-trifluoroethoxy)pyridin-2-yl]methanol,GNILTGRCVCMPFJ-UHFFFAOYSA-N,CC1=C(C=CN=C1CO)OCC(F)(F)F,103577-66-8,-1.792075085,Cc1c(OCC(F)(F)F)ccnc1CO
2519,B-7274,6-chloro-5-(2-chloroethyl)-1.3-dihydroindol-2-one,ZTQQXEPZEYIVDK-UHFFFAOYSA-N,C1C2=CC(=C(C=C2NC1=O)Cl)CCCl,118289-55-7,-4.77757256,O=C1Cc2cc(CCCl)c(Cl)cc2N1
2520,B-7275,methyl 2-(1-methoxy-2-methyl-1-oxopropan-2-yl)diazenyl-2-methylpropanoate,ZQMHJBXHRFJKOT-UHFFFAOYSA-N,CC(C)(C(=O)OC)N=NC(C)(C)C(=O)OC,002589-57-3,-1.850207566,COC(=O)C(C)(C)N=NC(C)(C)C(=O)OC
2521,B-7276,4-formyl-3-methoxybenzonitrile,ZXENVSJZOHXCKL-UHFFFAOYSA-N,COC1=C(C=CC(=C1)C#N)C=O,021962-45-8,-2.718706542,COc1cc(C#N)ccc1C=O
2522,B-7278,2-[1-(carboxymethyl)cyclohexyl]acetic acid,YQPCHPBGAALCRT-UHFFFAOYSA-N,C1CCC(CC1)(CC(=O)O)CC(=O)O,004355-11-7,-1.385083875,O=C(O)CC1(CC(=O)O)CCCCC1
2523,B-7279,5-methyl-2-(triazol-2-yl)benzoic acid,SRBAGFIYKNQXDV-UHFFFAOYSA-N,CC1=CC(=C(C=C1)N2N=CC=N2)C(=O)O,956317-36-5,-2.311412031,Cc1ccc(-n2nccn2)c(C(=O)O)c1
2524,B-7280,bis(2.2.6.6-tetramethylpiperidin-4-yl) decanedioate,XITRBUPOXXBIJN-UHFFFAOYSA-N,CC1(CC(CC(N1)(C)C)OC(=O)CCCCCCCCC(=O)OC2CC(NC(C2)(C)C)(C)C)C,052829-07-9,-4.407743195,CC1(C)CC(OC(=O)CCCCCCCCC(=O)OC2CC(C)(C)NC(C)(C)C2)CC(C)(C)N1
2525,B-7281,N-(5-fluoro-2.4-dinitrophenyl)acetamide,LZBXUWOTXPNTNQ-UHFFFAOYSA-N,CC(=O)NC1=CC(=C(C=C1[N+](=O)[O-])[N+](=O)[O-])F,019125-99-6,-6.680867922,CC(=O)Nc1cc(F)c([N+](=O)[O-])cc1[N+](=O)[O-]
2526,B-7282,(8S.13S.14S.17S)-17-hydroxy-13-methyl-2.6.7.8.11.12.14.15.16.17-decahydro-1H-cyclopenta[a]phenanthren-3-one,PUQSDJZESAQGQS-OWSLCNJRSA-N,C[C@]12CCC3=C4CCC(=O)C=C4CC[C@H]3[C@@H]1CC[C@@H]2O,006218-29-7,-3.71090955,CC12CCC3=C4CCC(=O)C=C4CCC3C1CCC2O
2527,B-7283,(4-hydroxyphenyl)-phenylmethanone,NPFYZDNDJHZQKY-UHFFFAOYSA-N,C1=CC=C(C=C1)C(=O)C2=CC=C(C=C2)O,001137-42-4,-3.135781222,O=C(c1ccccc1)c1ccc(O)cc1
2528,B-7284,2-(methoxymethyl)benzene-1.4-diamine,AVKBLCWBDLLVRL-UHFFFAOYSA-N,COCC1=C(C=CC(=C1)N)N,337906-36-2,0.270916243,COCc1cc(N)ccc1N
2529,B-7285,2-hydroxy-3-methylcyclopent-2-en-1-one,CFAKWWQIUFSQFU-UHFFFAOYSA-N,CC1=C(C(=O)CC1)O,000080-71-7,-0.621579282,CC1=C(O)C(=O)CC1
2530,B-7286,5-(dithiolan-3-yl)pentanoic acid,AGBQKNBQESQNJD-UHFFFAOYSA-N,C1CSSC1CCCCC(=O)O,001077-28-7,-2.375016604,O=C(O)CCCCC1CCSS1
2531,B-7287,4-bromo-2.2-di(phenyl)butanoic acid,GFIYIIRFIODLLU-UHFFFAOYSA-N,C1=CC=C(C=C1)C(CCBr)(C2=CC=CC=C2)C(=O)O,037742-98-6,-4.069490305,O=C(O)C(CCBr)(c1ccccc1)c1ccccc1
2532,B-7288,4-(Butoxymethyl)-2-methoxyphenol,VLDFMKOUUQYFGF-UHFFFAOYSA-N,CCCCOCC1=CC(=C(C=C1)O)OC,082654-98-6,-2.069929241,CCCCOCc1ccc(O)c(OC)c1
2533,B-7289,(E)-N-[3-(dimethylamino)propyl]octadec-9-enamide,UCWYGNTYSWIDSW-VAWYXSNFSA-N,CCCCCCCC/C=C/CCCCCCCC(=O)NCCCN(C)C,000109-28-4,-2.463856506,CCCCCCCCC=CCCCCCCCC(=O)NCCCN(C)C
2534,B-7291,5-CHLORO-2-NITROPHENOL,MZDBQSFPAMTTIS-UHFFFAOYSA-N,C1=CC(=C(C=C1Cl)O)[N+](=O)[O-],000611-07-4,-2.63737839,O=[N+]([O-])c1ccc(Cl)cc1O