,C_ID,Name,InChIKey,SMILES,CAS,LogS,smiles_canon
1175,B-5282,Purine-1(2H)-acetaldehyde. 3.6-dihydro-3.7-dimet,LJDPWWARLDGYIP-UHFFFAOYSA-N,CN1C=NC2=C1C(=O)N(CC=O)C(=O)N2C,005614-52-8,-1.4173,Cn1cnc2c1c(=O)n(CC=O)c(=O)n2C
1176,B-5283,TRIPROPIONIN,YZWRNSARCRTXDS-UHFFFAOYSA-N,CCC(=O)OCC(COC(=O)CC)OC(=O)CC,000139-45-7,-1.9286,CCC(=O)OCC(COC(=O)CC)OC(=O)CC
1177,B-5294,Pyrazinamide. N-2-pyrimidinyl-,DKMNQSXTWRWSMS-UHFFFAOYSA-N,O=C(NC1=CN=CC=N1)C1=NC=CC=N1,098590-07-9,-0.3036,O=C(Nc1cnccn1)c1ncccn1
1178,B-5296,2-Dibenzofuransulfonic acid,JANFYPHFIPGYTQ-UHFFFAOYSA-N,OS(=O)(=O)C1=CC2=C(OC3=CC=CC=C23)C=C1,083863-63-2,-0.4655,O=S(=O)(O)c1ccc2oc3ccccc3c2c1
1179,B-5302,1-Piperazinecarboxylic acid. 4.4'-ethylenedi-. d,JFKLEBCYGWCBAL-UHFFFAOYSA-N,CCOC(=O)N1CCN(CCN2CCN(CC2)C(=O)OCC)CC1,101433-80-1,-1.2558,CCOC(=O)N1CCN(CCN2CCN(C(=O)OCC)CC2)CC1
1180,B-5305,2-Furancarboxamide. N-[(2-furanylcarbonyl)oxy]-,KZLCWATWALDRPR-UHFFFAOYSA-N,O=C(NOC(=O)C1=CC=CO1)C1=CC=CO1,076199-02-5,-1.9718,O=C(NOC(=O)c1ccco1)c1ccco1
1181,B-5306,2.4.5-tris(furan-2-yl)-4.5-dihydro-1H-imidazole,VWGVUCWHPBULRD-UHFFFAOYSA-N,C1=COC(=C1)C2C(N=C(N2)C3=CC=CO3)C4=CC=CO4,000550-23-2,-3.1275,c1coc(C2=NC(c3ccco3)C(c3ccco3)N2)c1
1182,B-5309,Acetic acid. 2.2'-[1.3-propanediylbis(thio)]bis-,QFEGZYANALYACQ-UHFFFAOYSA-N,C(CSCC(=O)O)CSCC(=O)O,005065-18-9,-0.6105,O=C(O)CSCCCSCC(=O)O
1183,B-5310,N-[[2.5-dichloro-4-(1.1.2.3.3.3-hexafluoropropoxy)phenyl]carbamoyl]-2.6-difluorobenzamide,PWPJGUXAGUPAHP-UHFFFAOYSA-N,C1=CC(=C(C(=C1)F)C(=O)NC(=O)NC2=CC(=C(C=C2Cl)OC(C(C(F)(F)F)F)(F)F)Cl)F,103055-07-8,-7.045794782,O=C(NC(=O)c1c(F)cccc1F)Nc1cc(Cl)c(OC(F)(F)C(F)C(F)(F)F)cc1Cl
1184,B-5315,1.3-Benzenedicarboxylic acid. 2-hydroxy-5-methyl,KDXVWMYGJZDEPM-UHFFFAOYSA-N,CC1=CC(C(O)=O)=C(O)C(=C1)C(O)=O,040617-52-5,-2.1787,Cc1cc(C(=O)O)c(O)c(C(=O)O)c1
1185,B-5318,methyl N-(6-phenylsulfanyl-1H-benzimidazol-2-yl)carbamate,HDDSHPAODJUKPD-UHFFFAOYSA-N,COC(=O)NC1=NC2=C(N1)C=C(C=C2)SC3=CC=CC=C3,043210-67-9,-7.47617433,COC(=O)Nc1nc2ccc(Sc3ccccc3)cc2[nH]1
1186,B-5320,Butyric acid. 2.2'-dithiodi-,YPISROXAISJWDA-UHFFFAOYSA-N,CCC(SSC(CC)C(O)=O)C(O)=O,090114-01-5,-0.9622,CCC(SSC(CC)C(=O)O)C(=O)O
1187,B-5322,Glycine. N-(dithiocarboxy)-N-phenyl-. S-benzyl e,QJYFZGZQJOGQTO-UHFFFAOYSA-N,OC(=O)CN(C(=S)SCC1=CC=CC=C1)C1=CC=CC=C1,006477-90-3,-3.9219,O=C(O)CN(C(=S)SCc1ccccc1)c1ccccc1
1188,B-5324,Acetamide. N-(1.3-dihydro-1-oxo-6-isobenzofurany,CLPDGZLMLHDCOY-UHFFFAOYSA-N,CC(=O)NC1=CC2=C(COC2=O)C=C1,021626-90-4,-2.6002,CC(=O)Nc1ccc2c(c1)C(=O)OC2
1189,B-5327,s-Trithiane. 1.3-dioxide,GFGCDHXUFXEGLF-UHFFFAOYSA-N,C1SCS(=O)CS1=O,010349-01-6,-1.0007,O=S1CSCS(=O)C1
1190,B-5329,fluacrypyrim,MXWAGQASUDSFBG-RVDMUPIBSA-N,CC(C)OC1=NC(=CC(=N1)OCC2=CC=CC=C2/C(=C\OC)/C(=O)OC)C(F)(F)F,229977-93-9,-6.093250096,COC=C(C(=O)OC)c1ccccc1COc1cc(C(F)(F)F)nc(OC(C)C)n1
1191,B-5338,2.5-Pyrrolidinedicarboxylic acid. 1-methyl-. cis,IOQQUARBSGAWCJ-SYDPRGILSA-N,CN1[C@H](CC[C@H]1C(=O)O)C(=O)O,052321-05-8,-0.4426,CN1C(C(=O)O)CCC1C(=O)O
1192,B-5340,4-hydroxypyridine,GCNTZFIIOFTKIY-UHFFFAOYSA-N,C1=CNC=CC1=O,000626-64-2,1.0218,O=c1cc[nH]cc1
1193,B-5349,Benzamide. O-(L-arabinopyranosyloxy)-N.N-dimethy,DTCWWKLKJDOVQX-UHFFFAOYSA-N,CN(C)C(=O)C1=CC=CC=C1OC1OCC(O)C(O)C1O,101116-23-8,-0.8711,CN(C)C(=O)c1ccccc1OC1OCC(O)C(O)C1O
1194,B-5352,Ethyl 2-formamido (4-chlorophenyl) acrylate,NHMYKWNMIPBQKB-YRNVUSSQSA-N,CCOC(=O)/C(=C\C1=CC=C(C=C1)Cl)/NC=O,136986-62-4,-3.0099,CCOC(=O)C(=Cc1ccc(Cl)cc1)NC=O
1195,B-5355,(3-hydroxy-2.2-dimethyl-3H-1-benzofuran-7-yl) N-methylcarbamate,RHSUJRQZTQNSLL-UHFFFAOYSA-N,CC1(C(C2=C(O1)C(=CC=C2)OC(=O)NC)O)C,016655-82-6,-1.582333262,CNC(=O)Oc1cccc2c1OC(C)(C)C2O
1196,B-5356,Hexanamide. N-(aminocarbonyl)-2-bromo-,UBOMGPOXNJJPEA-UHFFFAOYSA-N,CCCCC(Br)C(=O)NC(N)=O,014299-56-0,-2.8564,CCCCC(Br)C(=O)NC(N)=O
1197,B-5357,2-Isoindolineacetic acid. .alpha.-ethyl-.alpha.-,DRAGYQKESAIJPL-UHFFFAOYSA-N,CCC(C)(N1C(=O)C2=C(C=CC=C2)C1=O)C(O)=O,096435-08-4,-1.916,CCC(C)(C(=O)O)N1C(=O)c2ccccc2C1=O
1198,B-5363,7H-Purine-7-acetaldehyde. 1.2.3.6-tetrahydro-1.3,LXIWYKGAOIXZFO-UHFFFAOYSA-N,CN1C2=C(C(=O)N(C1=O)C)N(C=N2)CC=O,005614-53-9,-1.2676,Cn1c(=O)c2c(ncn2CC=O)n(C)c1=O
1199,B-5366,Ethyl 2-formamido (4-nitrophenyl) acrylate,DMFUFMVZELKEFI-YRNVUSSQSA-N,CCOC(=O)/C(=C\C1=CC=C(C=C1)[N+](=O)[O-])/NC=O,136986-60-2,-2.4601,CCOC(=O)C(=Cc1ccc([N+](=O)[O-])cc1)NC=O
1200,B-5372,4-amino-N-tert-butyl-5-oxo-3-propan-2-yl-1.2.4-triazole-1-carboxamide,ORFPWVRKFLOQHK-UHFFFAOYSA-N,CC(C)C1=NN(C(=O)N1N)C(=O)NC(C)(C)C,129909-90-6,-1.719785811,CC(C)c1nn(C(=O)NC(C)(C)C)c(=O)n1N
1201,B-5375,Benzoic acid. 4-(2.4-diaminophenylazo)-. ethyl e,PXRMJHUURCSDPA-UHFFFAOYSA-N,CCOC(=O)C1=CC=C(C=C1)\N=N\C1=C(N)C=C(N)C=C1,038753-34-3,-3.3746,CCOC(=O)c1ccc(N=Nc2ccc(N)cc2N)cc1
1202,B-5378,4.6-diamino-2-(cyclopropylamino)pyrimidine-5-carbonitrile,PKTIFYGCWCQRSX-UHFFFAOYSA-N,C1CC1NC2=NC(=C(C(=N2)N)C#N)N,112636-83-6,-0.580256948,N#Cc1c(N)nc(NC2CC2)nc1N
1203,B-5382,2-Ethyl-2-methyl-succinic acid,FDYJJKHDNNVUDR-UHFFFAOYSA-N,CCC(C)(CC(=O)O)C(=O)O,000631-31-2,-0.0171,CCC(C)(CC(=O)O)C(=O)O
1204,B-5385,Ethyl 2-formamido (2-chlorophenyl) acrylate,IUJMAIXKNQJCRQ-YRNVUSSQSA-N,CCOC(=O)/C(=C\C1=CC=CC=C1Cl)/NC=O,336111-17-2,-2.9995,CCOC(=O)C(=Cc1ccccc1Cl)NC=O
1205,B-5389,1.3-Cyclohexanedione. 2.2'-methylenebis[5.5-dime,JSCUZLUQVFQIII-UHFFFAOYSA-N,CC1(CC(=O)C(C(=O)C1)CC2C(=O)CC(CC2=O)(C)C)C,002181-22-8,-1.5909,CC1(C)CC(=O)C(CC2C(=O)CC(C)(C)CC2=O)C(=O)C1
1206,B-5392,Benzoic acid. 2-[acetyl(carboxymethyl)amino]-,URYINHGAADCWIS-UHFFFAOYSA-N,CC(=O)N(C1=CC=CC=C1C(=O)O)C(=O)OC,016851-69-7,-2.0873,COC(=O)N(C(C)=O)c1ccccc1C(=O)O
1207,B-5398,1.3-Propanediol. 2-nitro-2- (nitrooxy)methyl -.,LQVCBLBPWSZOPA-UHFFFAOYSA-N,C(C(CO[N+](=O)[O-])(CO[N+](=O)[O-])[N+](=O)[O-])O[N+](=O)[O-],020820-44-4,-2.5448,O=[N+]([O-])OCC(CO[N+](=O)[O-])(CO[N+](=O)[O-])[N+](=O)[O-]
1208,B-5402,Imidodicarbonic diamide,OHJMTUPIZMNBFR-UHFFFAOYSA-N,C(=O)(N)NC(=O)N,000108-19-0,-0.8313,NC(=O)NC(N)=O
1209,B-5404,2H-Purine-2-thione. 1.3-dihydro-,HDBQZGJWHMCXIL-UHFFFAOYSA-N,C1=C2C(=NC(=N1)S)N=CN2,028128-19-0,-2.5803,Sc1ncc2[nH]cnc2n1
1210,B-5405,Malonic acid. (o-carboxybenzyl)-. 1.3-diethyl es,ZTPGRZLRJVEVLX-UHFFFAOYSA-N,CCOC(=O)C(CC1=C(C=CC=C1)C(O)=O)C(=O)OCC,014746-25-9,-2.8156,CCOC(=O)C(Cc1ccccc1C(=O)O)C(=O)OCC
1211,B-5413,Ethane. 1-bromo-2-(ethylsulfonyl)-,DLALRTNMFJVUSC-UHFFFAOYSA-N,CCS(=O)(=O)CCBr,030129-83-0,-0.4389,CCS(=O)(=O)CCBr
1212,B-5419,Glycine. N-(2-furanylcarbonyl)-. ethyl ester,PPKUFYUCBZLPPP-UHFFFAOYSA-N,CCOC(=O)CNC(=O)C1=CC=CO1,066318-15-8,-0.9313,CCOC(=O)CNC(=O)c1ccco1
1213,B-5435,Carbamic acid. (1.3-dioxo-1.3-propanediyl)bis-.,DPOPJTBOMCSYAQ-UHFFFAOYSA-N,CCOC(=O)NC(=O)CC(=O)NC(=O)OCC,049754-15-6,-0.9934,CCOC(=O)NC(=O)CC(=O)NC(=O)OCC
1214,B-5437,Benzeneacetic acid. 4-(acetyloxy)-3-methoxy-,QLJMBAXRCXCSGZ-UHFFFAOYSA-N,CC(=O)OC1=C(C=C(C=C1)CC(=O)O)OC,005447-38-1,-2.1637,COc1cc(CC(=O)O)ccc1OC(C)=O
1215,B-5438,(2R)-2-acetamido-3-(4-chlorophenyl)sulfanylpropanoic acid,NYIHHVVSWNGRAJ-JTQLQIEISA-N,CC(=O)N[C@@H](CSC1=CC=C(C=C1)Cl)C(=O)O,021462-48-6,-2.6592,CC(=O)NC(CSc1ccc(Cl)cc1)C(=O)O
1216,B-5439,2-(4-chlorophenyl)-2-[2.6-dichloro-4-(3.5-dioxo-1.2.4-triazin-2-yl)phenyl]acetonitrile,ZSZFUDFOPOMEET-UHFFFAOYSA-N,C1=CC(=CC=C1C(C#N)C2=C(C=C(C=C2Cl)N3C(=O)NC(=O)C=N3)Cl)Cl,101831-37-2,-7.610279669,N#CC(c1ccc(Cl)cc1)c1c(Cl)cc(-n2ncc(=O)[nH]c2=O)cc1Cl
1217,B-5448,Phthalic acid. 4-nitro-. 1-methyl ester,CEEJSCAKNYSVHF-UHFFFAOYSA-N,COC(=O)C1=C(C=C(C=C1)[N+](=O)[O-])C(=O)O,090072-77-8,-2.0558,COC(=O)c1ccc([N+](=O)[O-])cc1C(=O)O
1218,B-5456,Ethyl 2-formamido (4-methoxyphenyl) acrylate,YFYFUQAXMDAGFJ-WQLSENKSSA-N,CCOC(=O)C(\NC=O)=C\C1=CC=C(OC)C=C1,136986-59-9,-2.7396,CCOC(=O)C(=Cc1ccc(OC)cc1)NC=O
1219,B-5461,Propane. 1-isothiocyanato-3-(methylsulfonyl)-,ZSJGCHNCYSHQEU-UHFFFAOYSA-N,CS(=O)(=O)CCCN=C=S,000505-34-0,-1.1074,CS(=O)(=O)CCCN=C=S
1220,B-5463,D-Mannitol. 1.6-dichloro-1.6-dideoxy-,VSYOJRJNYPFTHS-UHFFFAOYSA-N,C(C(C(C(C(CCl)O)O)O)O)Cl,007251-85-6,-0.6835,OC(CCl)C(O)C(O)C(O)CCl
1221,B-5464,4-Thiazolesulfonic acid,GVTBJTYMLCBUNM-UHFFFAOYSA-N,OS(=O)(=O)C1=CSC=N1,082971-12-8,0.3599,O=S(=O)(O)c1cscn1
1222,B-5466,Propanedioic acid. aminomethyl-,UURVVRAGBFTTCJ-UHFFFAOYSA-N,CC(C(=O)O)(C(=O)O)N,026767-88-4,0.8758,CC(N)(C(=O)O)C(=O)O
1223,B-5470,Undecanoic acid. 11-hydroxy-,KNRCBASNXNXUQQ-UHFFFAOYSA-N,OCCCCCCCCCCC(O)=O,003669-80-5,-2.7039,O=C(O)CCCCCCCCCCO
1224,B-5473,5-ETHYL-5-(P-HYDROXYPHENYL)BARBITURIC ACID,IEPXMKJNWPXDBP-UHFFFAOYSA-N,CCC1(C(=O)NC(=O)NC1=O)C1=CC=C(O)C=C1,000379-34-0,-2.3015,CCC1(c2ccc(O)cc2)C(=O)NC(=O)NC1=O
1225,B-5474,2.4.6(1H.3H.5H)-Pyrimidinetrione. 5-(acetyloxy)-,SFCQPXJONKIWQK-UHFFFAOYSA-N,CC(=O)OC1C(=O)NC(=O)NC1=O,053039-86-4,-0.7087,CC(=O)OC1C(=O)NC(=O)NC1=O
1226,B-5479,2-Imidazolidinone. 4-hydroperoxy-5-hydroxy-4-met,HIDRLUZGJQCOLL-UHFFFAOYSA-N,CC1(NC(=O)NC1O)OO,085576-52-9,-0.5966,CC1(OO)NC(=O)NC1O
1227,B-5486,PHENOXYACETIC ACID.4-CYCLOHEXYL,FODXAKQIZRQXBS-UHFFFAOYSA-N,C1CCC(CC1)C2=CC=C(C=C2)OCC(=O)O,001878-56-4,-3.4947,O=C(O)COc1ccc(C2CCCCC2)cc1
1228,B-5488,5-PYRIMIDINECARBOXYLIC AICD. 1.2.3.4-TETRAHYDRO-,FQFSHLBWRUOCPX-UHFFFAOYSA-N,CCOC(=O)C1=CN=C(NC1=O)S,038026-46-9,-2.0985,CCOC(=O)c1cnc(S)[nH]c1=O
1229,B-5491,Heptanedioic acid. 2.6-diethyl-,NBPMKYKTGSYOPL-UHFFFAOYSA-N,CCC(CCCC(CC)C(O)=O)C(O)=O,034833-00-6,-1.9658,CCC(CCCC(CC)C(=O)O)C(=O)O
1230,B-5496,4-(PHENYLAZO)BENZENESULFONIC ACID,AJMNDPOSKIBVGX-UHFFFAOYSA-N,C1=CC=C(C=C1)N=NC2=CC=C(C=C2)S(=O)(=O)O,002484-88-0,-0.6706,O=S(=O)(O)c1ccc(N=Nc2ccccc2)cc1
1231,B-5498,Fenoxanil,IUOKJNROJISWRO-UHFFFAOYSA-N,CC(C)C(C)(C#N)NC(=O)C(C)OC1=C(C=C(C=C1)Cl)Cl,115852-48-7,-1.030321451,CC(Oc1ccc(Cl)cc1Cl)C(=O)NC(C)(C#N)C(C)C
1232,B-5499,5-[(4.5-dimethoxy-2-methylphenyl)methyl]pyrimidine-2.4-diamine,KEEYRKYKLYARHO-UHFFFAOYSA-N,CC1=CC(=C(C=C1CC2=CN=C(N=C2N)N)OC)OC,006981-18-6,-2.250739601,COc1cc(C)c(Cc2cnc(N)nc2N)cc1OC
1233,B-5501,BENZOIC ACID. 2-HYDROXY-. 2-[(2-HYDROXYETHYL)MET,CQZQRUAPFCYPOA-UHFFFAOYSA-N,CN(CCO)C(=O)COC(=O)C1=CC=CC=C1O,114665-09-7,-1.604,CN(CCO)C(=O)COC(=O)c1ccccc1O
1234,B-5503,1-[2-(2.4-dichlorophenyl)-3-(1.1.2.2-tetrafluoroethoxy)propyl]-1.2.4-triazole,LQDARGUHUSPFNL-UHFFFAOYSA-N,C1=CC(=C(C=C1Cl)Cl)C(CN2C=NC=N2)COC(C(F)F)(F)F,112281-77-3,-3.375925099,FC(F)C(F)(F)OCC(Cn1cncn1)c1ccc(Cl)cc1Cl
1235,B-5507,Urea. (2.2.2-trichloro-1-hydroxyethyl)-,VPENXVZFNXARIV-UHFFFAOYSA-N,C(C(Cl)(Cl)Cl)(NC(=O)N)O,002000-40-0,-0.7148,NC(=O)NC(O)C(Cl)(Cl)Cl
1236,B-5508,Capsaicin,YKPUWZUDDOIDPM-SOFGYWHQSA-N,CC(C)/C=C/CCCCC(=O)NCC1=CC(=C(C=C1)O)OC,000404-86-4,-4.472054845,COc1cc(CNC(=O)CCCCC=CC(C)C)ccc1O
1237,B-5510,Metobenzuron,BXKKQFGRMSOANI-UHFFFAOYSA-N,CC1(CC(OC2=C1C=CC(=C2)OC3=CC=C(C=C3)NC(=O)N(C)OC)(C)OC)C,111578-32-6,-6.0005,CON(C)C(=O)Nc1ccc(Oc2ccc3c(c2)OC(C)(OC)CC3(C)C)cc1
1238,B-5520,2H-Pyran-6-carboxylic acid. 3.4-dihydro-2.3.4-tr,BRYBHMWOSOPYBJ-UHFFFAOYSA-N,OC(=O)C1=CC(=O)C(=O)\C(O1)=N/NC1=CC=CC=C1,017894-07-4,-1.0174,O=C(O)C1=CC(=O)C(=O)C(=NNc2ccccc2)O1
1239,B-5526,propan-2-yl 2-(amino-methoxyphosphinothioyl)oxybenzoate,YFVOXLJXJBQDEF-UHFFFAOYSA-N,CC(C)OC(=O)C1=CC=CC=C1OP(=S)(N)OC,024353-61-5,-3.615608648,COP(N)(=S)Oc1ccccc1C(=O)OC(C)C
1240,B-5528,N-[2-(2-cyclopropylcyclopropyl)phenyl]-3-(difluoromethyl)-1-methylpyrazole-4-carboxamide,XQJQCBDIXRIYRP-UHFFFAOYSA-N,CN1C=C(C(=N1)C(F)F)C(=O)NC2=CC=CC=C2C3CC3C4CC4,874967-67-6,-4.374224468,Cn1cc(C(=O)Nc2ccccc2C2CC2C2CC2)c(C(F)F)n1
1241,B-5529,propan-2-yl N-[(2S)-1-[[(1R)-1-(6-fluoro-1.3-benzothiazol-2-yl)ethyl]amino]-3-methyl-1-oxobutan-2-yl]carbamate,USRKFGIXLGKMKU-IAQYHMDHSA-N,CC(C)OC(=O)N[C@H](C(C)C)C(=O)N[C@H](C)C1=NC2=CC=C(F)C=C2S1,177406-68-7,-4.464223247,CC(C)OC(=O)NC(C(=O)NC(C)c1nc2ccc(F)cc2s1)C(C)C
1242,B-5532,1-HEXYL-4-CARBOXY-2-PYRROLIDONE,VHKDTUOUWLJSJT-UHFFFAOYSA-N,CCCCCCN1CC(CC1=O)C(=O)O,116167-27-2,-1.456,CCCCCCN1CC(C(=O)O)CC1=O
1243,B-5535,Bixafen,LDLMOOXUCMHBMZ-UHFFFAOYSA-N,CN1C=C(C(=N1)C(F)F)C(=O)NC2=C(C=C(C=C2)F)C3=CC(=C(C=C3)Cl)Cl,581809-46-3,-5.925122577,Cn1cc(C(=O)Nc2ccc(F)cc2-c2ccc(Cl)c(Cl)c2)c(C(F)F)n1
1244,B-5546,Dodecanedioic acid. 3-methyl-,LFRDJQLRELTNCX-UHFFFAOYSA-N,CC(CCCCCCCCC(O)=O)CC(O)=O,077633-51-3,-3.388,CC(CCCCCCCCC(=O)O)CC(=O)O
1245,B-5562,Propanamide. 2.2'-thiobis-,LCVCMADEAZAEFX-UHFFFAOYSA-N,CC(C(=O)N)SC(C)C(=O)N,006944-30-5,-0.9239,CC(SC(C)C(N)=O)C(N)=O
1246,B-5564,O-(Pivaloyloxymethyl)salicylamide,WLYDAGOZAIONEL-UHFFFAOYSA-N,CC(C)(C)C(=O)OCOC1=CC=CC=C1C(N)=O,103951-40-2,-2.6148,CC(C)(C)C(=O)OCOc1ccccc1C(N)=O
1247,B-5565,2-[5-[2-chloro-4-(trifluoromethyl)phenoxy]-2-nitrobenzoyl]oxyacetic acid,DHAHEVIQIYRFRG-UHFFFAOYSA-N,C1=CC(=C(C=C1C(F)(F)F)Cl)OC2=CC(=C(C=C2)[N+](=O)[O-])C(=O)OCC(=O)O,077501-60-1,-5.844785442,O=C(O)COC(=O)c1cc(Oc2ccc(C(F)(F)F)cc2Cl)ccc1[N+](=O)[O-]
1248,B-5566,3.5-Piperidinedicarbonitrile. 4-butyl-4-methyl-2,CBZUMPOKTUVIOS-UHFFFAOYSA-N,CCCCC1(C(C(=O)NC(=O)C1C#N)C#N)C,064635-92-3,-2.1637,CCCCC1(C)C(C#N)C(=O)NC(=O)C1C#N
1249,B-5570,6-DIMETHYLAMINOPURINE,BVIAOQMSVZHOJM-UHFFFAOYSA-N,CN(C)C1=NC=NC2=C1NC=N2,000938-55-6,-1.3,CN(C)c1ncnc2nc[nH]c12
1250,B-5573,ETOFYLLINE NICOTINATE,ZWIAODBBEZGVPY-UHFFFAOYSA-N,CN1C2=C(C(=O)N(C1=O)C)N(C=N2)CCOC(=O)C3=CN=CC=C3,013425-39-3,-1.2166,Cn1c(=O)c2c(ncn2CCOC(=O)c2cccnc2)n(C)c1=O
1251,B-5574,Metacil,HWGBHCRJGXAGEU-UHFFFAOYSA-N,CC1=CC(=O)N=C(N1)S,000056-04-2,-2.4259,Cc1cc(=O)nc(S)[nH]1
1252,B-5577,DL-Methionine. N-(2-cyanoethyl)-,LHCHRAHJOLPBDV-UHFFFAOYSA-N,CSCCC(C(=O)O)NCCC#N,005464-31-3,-1.2646,CSCCC(NCCC#N)C(=O)O
1253,B-5578,Ethaboxam,NQRFDNJEBWAUBL-UHFFFAOYSA-N,CCC1=C(SC(=N1)NCC)C(=O)NC(C#N)C2=CC=CS2,162650-77-3,-4.412270822,CCNc1nc(CC)c(C(=O)NC(C#N)c2cccs2)s1
1254,B-5580,Glycine. N-2-furoyl-2-phenyl-,ZHIAKSVTYSRRAL-AUEPDCJTSA-N,OC(=O)C(NC(=O)C1=CC=CO1)C1=CC=CC=C1,005657-20-5,-2.2435,O=C(NC(C(=O)O)c1ccccc1)c1ccco1
1255,B-5584,3.5-dichloro-N-(1-chloro-3-methyl-2-oxopentan-3-yl)-4-methylbenzamide,SOUGWDPPRBKJEX-UHFFFAOYSA-N,CCC(C)(C(=O)CCl)NC(=O)C1=CC(=C(C(=C1)Cl)C)Cl,156052-68-5,-5.694024928,CCC(C)(NC(=O)c1cc(Cl)c(C)c(Cl)c1)C(=O)CCl
1256,B-5585,Benzenesulfonamide. 4-amino-N-(5-iodo-2-pyridiny,WZRJILFZOLIDOA-UHFFFAOYSA-N,NC1=CC=C(C=C1)S(=O)(=O)NC1=CC=C(I)C=N1,071119-21-6,-4.4603,Nc1ccc(S(=O)(=O)Nc2ccc(I)cn2)cc1
1257,B-5587,Purine-1(2H)-propionic acid. 3.6-dihydro-3.7-dim,SCWZFIOJEFQBMD-UHFFFAOYSA-N,CN1C=NC2=C1C(=O)N(C(=O)N2C)CCC(=O)O,005815-65-6,-0.8966,Cn1cnc2c1c(=O)n(CCC(=O)O)c(=O)n2C
1258,B-5590,Carbonic acid. trithio. diester with 2-mercaptop,UNYFEXUBVAOBCV-UHFFFAOYSA-N,OC(=O)CCSC(=S)SCCC(O)=O,000924-57-2,-1.9283,O=C(O)CCSC(=S)SCCC(=O)O
1259,B-5595,dimethoxy-(3-methyl-4-methylsulfinylphenoxy)-sulfanylidenephosphorane,DLAPIMGBBDILHJ-UHFFFAOYSA-N,CC1=C(C=CC(=C1)OP(=S)(OC)OC)S(=O)C,003761-41-9,-4.898276687,COP(=S)(OC)Oc1ccc(S(C)=O)c(C)c1
1260,B-5598,(6-methyl-2.4-dioxo-1.2.3.4-tetrahydropyrimidin-5-yl)acetic acid,PLJHQVSJDMKAFP-UHFFFAOYSA-N,CN(C)C1=CC=C(C=C1)S(=O)(=O)C2=CC=C(C=C2)N(C)C,033871-62-4,-2.529191495,CN(C)c1ccc(S(=O)(=O)c2ccc(N(C)C)cc2)cc1
1261,B-5601,2H-Pyran-2.5-dicarboxylic acid. tetrahydro-2.6.6,KTSCHRREMZDLIP-QUBYGPBYSA-N,C[C@@]1(CC[C@H](C(O1)(C)C)C(=O)O)C(=O)O,000473-18-7,-1.189,CC1(C(=O)O)CCC(C(=O)O)C(C)(C)O1
1262,B-5602,(2-methyl-1-oxo-1-prop-2-enoxypropan-2-yl) 2-chloro-5-[3-methyl-2.6-dioxo-4-(trifluoromethyl)pyrimidin-1-yl]benzoate,JEDYYFXHPAIBGR-UHFFFAOYSA-N,CC(C)(C(=O)OCC=C)OC(=O)C1=C(C=CC(=C1)N2C(=O)C=C(N(C2=O)C)C(F)(F)F)Cl,134605-64-4,-4.676529187,C=CCOC(=O)C(C)(C)OC(=O)c1cc(-n2c(=O)cc(C(F)(F)F)n(C)c2=O)ccc1Cl
1263,B-5603,Carbadox,BPMVRAQIQQEBLN-UHFFFAOYSA-N,COC(=O)N=NC=C1C=[N+](C2=CC=CC=C2N1O)[O-],006804-07-5,-1.242581841,COC(=O)N=NC=C1C=[N+]([O-])c2ccccc2N1O
1264,B-5608,Phthalic acid. 3-nitro-. 2-isopropyl ester,VLYOOXLMUKHFNY-UHFFFAOYSA-N,CC(C)OC(=O)C1=C(C=CC=C1[N+](=O)[O-])C(=O)O,006744-87-2,-2.4897,CC(C)OC(=O)c1c(C(=O)O)cccc1[N+](=O)[O-]
1265,B-5612,Benzenesulfonamide. 2-cyano-N-phenyl-,IQNKZUQUGOTVLG-UHFFFAOYSA-N,C1=CC=C(C=C1)NS(=O)(=O)C2=CC=CC=C2C#N,069360-16-3,-2.935,N#Cc1ccccc1S(=O)(=O)Nc1ccccc1
1266,B-5626,2.5-Piperazinedione. 3.6-bis(hydroxymethyl)-. ci,SUWGHSHLNOADHI-IMJSIDKUSA-N,C([C@H]1C(=O)N[C@H](C(=O)N1)CO)O,015996-17-5,-0.5022,O=C1NC(CO)C(=O)NC1CO
1267,B-5627,(3-diethoxyphosphinothioylsulfanyl-1.4-dioxan-2-yl)sulfanyl-diethoxy-sulfanylidenephosphorane,VBKKVDGJXVOLNE-UHFFFAOYSA-N,CCOP(=S)(OCC)SC1C(OCCO1)SP(=S)(OCC)OCC,000078-34-2,-5.469129347,CCOP(=S)(OCC)SC1OCCOC1SP(=S)(OCC)OCC
1268,B-5630,4.5-Isoxazoledione. 3-methyl-. 4-oxime,MKDJSPLAUHWNBN-UHFFFAOYSA-N,CC1=C(C(=O)ON1)N=O,018438-56-7,-0.5393,Cc1[nH]oc(=O)c1N=O
1269,B-5631,Hydrazinecarboxamide. 2-(1-methylethylidene)-N-p,MUBXNIUEXMLKDP-UHFFFAOYSA-N,CC(=NNC(=O)NC1=CC=CC=C1)C,078002-37-6,-2.3273,CC(C)=NNC(=O)Nc1ccccc1
1270,B-5632,Fenpyrazamine,UTOHZQYBSYOOGC-UHFFFAOYSA-N,CC1=CC=CC=C1C2=C(N(N(C2=O)C(C)C)C(=O)SCC=C)N,473798-59-3,-4.210722337,C=CCSC(=O)n1c(N)c(-c2ccccc2C)c(=O)n1C(C)C
1271,B-5633,2-[2-chloro-5-[4-chloro-5-(difluoromethoxy)-1-methylpyrazol-3-yl]-4-fluorophenoxy]acetic acid,YXIIPOGUBVYZIW-UHFFFAOYSA-N,CN1C(=C(C(=N1)C2=CC(=C(C=C2F)Cl)OCC(=O)O)Cl)OC(F)F,129630-17-7,-5.585556887,Cn1nc(-c2cc(OCC(=O)O)c(Cl)cc2F)c(Cl)c1OC(F)F
1272,B-5636,2-hydroxy-3-[3-(4-phenylphenyl)-1.2.3.4-tetrahydronaphthalen-1-yl]chromen-4-one,NZOWVZVFSVRNOR-UHFFFAOYSA-N,C1C(CC2=CC=CC=C2C1C3=C(OC4=CC=CC=C4C3=O)O)C5=CC=C(C=C5)C6=CC=CC=C6,056073-07-5,-5.417450982,O=c1c(C2CC(c3ccc(-c4ccccc4)cc3)Cc3ccccc32)c(O)oc2ccccc12
1273,B-5638,Hydrazinecarboxamide. 2-ethylidene-,IUNNCDSJWDQYPW-DJWKRKHSSA-N,C/C=N\NC(=O)N,000591-86-6,-0.5424,CC=NNC(N)=O
1274,B-5639,(2S.4R)-2.4-dimethylpentanedioic acid,VIWYMIDWAOZEAZ-SYDPRGILSA-N,C[C@H](C[C@H](C)C(=O)O)C(=O)O,002121-67-7,-0.4564,CC(CC(C)C(=O)O)C(=O)O
1275,B-5642,1H-Purine-2.6-dione. 3.9-dihydro-1.3.8.9-tetrame,KOFCUJKHOUYKPO-UHFFFAOYSA-N,CC1=NC2=C(N1C)N(C(=O)N(C2=O)C)C,027038-96-6,-2.1424,Cc1nc2c(=O)n(C)c(=O)n(C)c2n1C
1276,B-5652,Succinanilic acid. 3-methyl-,VRJAEQGSNATVEE-UHFFFAOYSA-N,CC1=CC=CC(NC(=O)CCC(O)=O)=C1,091133-69-6,-1.2373,Cc1cccc(NC(=O)CCC(=O)O)c1
1277,B-5654,Benzenepropanoic acid. .beta.-[(carboxymethyl)th,GIITZCIPVGXMHH-UHFFFAOYSA-N,C1=CC=C(C=C1)C(CC(=O)O)SCC(=O)O,067242-91-5,-1.2459,O=C(O)CSC(CC(=O)O)c1ccccc1
1278,B-5656,Difethialone,VSVAQRUUFVBBFS-UHFFFAOYSA-N,C1C(CC2=CC=CC=C2C1C3=C(SC4=CC=CC=C4C3=O)O)C5=CC=C(C=C5)C6=CC=C(C=C6)Br,104653-34-1,-6.138693709,O=c1c(C2CC(c3ccc(-c4ccc(Br)cc4)cc3)Cc3ccccc32)c(O)sc2ccccc12
1279,B-5660,ALLOPURINOL. 1-[NICOTINOYLOXYMETHYL]-,HCHRSYLSCJROCA-UHFFFAOYSA-N,C1=CC(=CN=C1)C(=O)OCN2C3=C(C=N2)C(=O)NC=N3,098846-66-3,-3.465,O=C(OCn1ncc2c(=O)[nH]cnc21)c1cccnc1
1280,B-5663,4-[(2-hydroxynaphthalen-1-yl)diazenyl]benzenesulfonic acid,VCNKRNUCSFJFQP-VLGSPTGOSA-N,C1=CC=C\2C(=C1)C=CC(=O)/C2=N\NC3=CC=C(C=C3)S(=O)(=O)O,000573-89-7,-0.2748,O=C1C=Cc2ccccc2C1=NNc1ccc(S(=O)(=O)O)cc1
1281,B-5664,Phthalic acid. 3-nitro-. 2-butyl ester,CLZJIDPTNPRSOZ-UHFFFAOYSA-N,CCCCOC(=O)C1=C(C=CC=C1[N+](=O)[O-])C(=O)O,006828-47-3,-2.7193,CCCCOC(=O)c1c(C(=O)O)cccc1[N+](=O)[O-]
1282,B-5670,Glycine. N-(phenylacetyl)-,UTYVDVLMYQPLQB-UHFFFAOYSA-N,C1=CC=C(C=C1)CC(=O)NCC(=O)O,000500-98-1,-1.422706245,O=C(O)CNC(=O)Cc1ccccc1
1283,B-5674,Cyflumetofen,AWSZRJQNBMEZOI-UHFFFAOYSA-N,CC(C)(C)C1=CC=C(C=C1)C(C#N)(C(=O)C2=CC=CC=C2C(F)(F)F)C(=O)OCCOC,400882-07-7,-7.20198966,COCCOC(=O)C(C#N)(C(=O)c1ccccc1C(F)(F)F)c1ccc(C(C)(C)C)cc1
1284,B-5676,Purine-7-acetamide. N.N-diethyl-1.2.3.6-tetrahyd,HRIJEJDKCKJHEG-UHFFFAOYSA-N,CCN(CC)C(=O)CN1C=NC2=C1C(=O)N(C(=O)N2C)C,106164-79-8,-0.9233,CCN(CC)C(=O)Cn1cnc2c1c(=O)n(C)c(=O)n2C
1285,B-5677,Tepraloxydim,IOYNQIMAUDJVEI-UHFFFAOYSA-N,CCC(=NOCC=CCl)C1=C(CC(CC1=O)C2CCOCC2)O,149979-41-9,-2.900303603,CCC(=NOCC=CCl)C1=C(O)CC(C2CCOCC2)CC1=O
1286,B-5680,3-[4-methoxy-6-(trifluoromethyl)-1.3.5-triazin-2-yl]-1-[2-(trifluoromethyl)phenyl]sulfonylurea,KVEQCVKVIFQSGC-UHFFFAOYSA-N,COC1=NC(=NC(=N1)NC(=O)NS(=O)(=O)C2=CC=CC=C2C(F)(F)F)C(F)(F)F,142469-14-5,-3.754890933,COc1nc(NC(=O)NS(=O)(=O)c2ccccc2C(F)(F)F)nc(C(F)(F)F)n1
1287,B-5681,1.3.5-Benzenetricarboxylic acid. 2-hydroxy-,AYARGAAVUXXAON-UHFFFAOYSA-N,C1=C(C=C(C(=C1C(=O)O)O)C(=O)O)C(=O)O,000609-98-3,-1.6554,O=C(O)c1cc(C(=O)O)c(O)c(C(=O)O)c1
1288,B-5687,Arabinoic acid. 2.3:4.5-di-O-benzylidene-. D-,CTMCUPGWMZDNHP-UHFFFAOYSA-N,OC(=O)C1OC(OC1C1COC(O1)C1=CC=CC=C1)C1=CC=CC=C1,020769-96-4,-2.4553,O=C(O)C1OC(c2ccccc2)OC1C1COC(c2ccccc2)O1