,C_ID,Name,InChIKey,SMILES,CAS,LogS,smiles_canon
1495,B-6200,(9Z)-9-ethylidenetetracyclo[6.2.1.13.6.02.7]dodec-4-ene,CSRQAJIMYJHHHQ-WAPJZHGLSA-N,C/C=C\1/CC2CC1C3C2C4CC3C=C4,038233-76-0,-6.066084014,CC=C1CC2CC1C1C3C=CC(C3)C21
1496,B-6201,N.N-dimethyldecan-1-amine,YWWNNLPSZSEZNZ-UHFFFAOYSA-N,CCCCCCCCCCN(C)C,001120-24-7,-4.045280805,CCCCCCCCCCN(C)C
1497,B-6202,6-ethenylbicyclo[2.2.1]hept-2-ene,INYHZQLKOKTDAI-UHFFFAOYSA-N,C=CC1CC2CC1C=C2,003048-64-4,-3.079882066,C=CC1CC2C=CC1C2
1498,B-6203,N.N-Dimethylcyclohexanamine,SVYKKECYCPFKGB-UHFFFAOYSA-N,CN(C)C1CCCCC1,000098-94-2,-0.977481315,CN(C)C1CCCCC1
1499,B-6204,1-Ethylpiperidine,HTLZVHNRZJPSMI-UHFFFAOYSA-N,CCN1CCCCC1,000766-09-6,-1.275703617,CCN1CCCCC1
1500,B-6205,2-methyl-5-propan-2-ylcyclohexa-1.3-diene,OGLDWXZKYODSOB-UHFFFAOYSA-N,CC1=CCC(C=C1)C(C)C,001329-99-3,-4.765077302,CC1=CCC(C(C)C)C=C1
1501,B-6206,1-Methoxyhexane,ICBJCVRQDSQPGI-UHFFFAOYSA-N,CCCCCCOC,004747-07-3,-2.245080841,CCCCCCOC
1502,B-6207,2-bromo-3.3.3-trifluoroprop-1-ene,QKBKGNDTLQFSEU-UHFFFAOYSA-N,C=C(C(F)(F)F)Br,001514-82-5,-2.238587608,C=C(Br)C(F)(F)F
1503,B-6208,N-ethyl-N-propan-2-ylpropan-2-amine,JGFZNNIVVJXRND-UHFFFAOYSA-N,CCN(C(C)C)C(C)C,007087-68-5,-1.242181359,CCN(C(C)C)C(C)C
1504,B-6209,1.1.1.2.2.3.3.4.4.5.5.6.6-tridecafluorohexane,XJSRKJAHJGCPGC-UHFFFAOYSA-N,C(C(C(C(C(C(F)(F)F)(F)F)(F)F)(F)F)(F)F)(F)F,000355-37-3,-5.329130779,FC(F)C(F)(F)C(F)(F)C(F)(F)C(F)(F)C(F)(F)F
1505,B-6210,1.1.1-TRIFLUOROETHANE,UJPMYEOUBPIPHQ-UHFFFAOYSA-N,CC(F)(F)F,000420-46-2,-2.043106038,CC(F)(F)F
1506,B-6211,3.3.4.4.5.5.6.6.6-nonafluorohex-1-ene,GVEUEBXMTMZVSD-UHFFFAOYSA-N,C=CC(C(C(C(F)(F)F)(F)F)(F)F)(F)F,019430-93-4,-4.197943425,C=CC(F)(F)C(F)(F)C(F)(F)C(F)(F)F
1507,B-6212,1.1.1.3.3.3-hexachloropropan-2-one,DOJXGHGHTWFZHK-UHFFFAOYSA-N,C(=O)(C(Cl)(Cl)Cl)C(Cl)(Cl)Cl,000116-16-5,-1.179798576,O=C(C(Cl)(Cl)Cl)C(Cl)(Cl)Cl
1508,B-6213,5-Bromo-1.2.3-trifluorobenzene,HKJCELUUIFFSIN-UHFFFAOYSA-N,C1=C(C=C(C(=C1F)F)F)Br,138526-69-9,-3.210299994,Fc1cc(Br)cc(F)c1F
1509,B-6214,(1Z.5E.9Z)-cyclododeca-1.5.9-triene,ZOLLIQAKMYWTBR-UDIJVJLMSA-N,C1/C=C/CC/C=C\CC/C=C\C1,004904-61-4,-5.763091445,C1=CCCC=CCCC=CCC1
1510,B-6215,3-Ethoxy-1.1.5-trimethylcyclohexane,JVBNHJDWWBSWLE-UHFFFAOYSA-N,CCOC1CC(CC(C1)(C)C)C,067583-77-1,-4.134289844,CCOC1CC(C)CC(C)(C)C1
1511,B-6216,(E)-1-chloro-3.3.3-trifluoroprop-1-ene,LDTMPQQAWUMPKS-OWOJBTEDSA-N,C(=C/Cl)\C(F)(F)F,102687-65-0,-1.836846927,FC(F)(F)C=CCl
1512,B-6217,[dimethyl-(trimethylsilylamino)silyl]methane,FFUAGWLWBBFQJT-UHFFFAOYSA-N,C[Si](C)(C)N[Si](C)(C)C,000999-97-3,-2.210066457,C[Si](C)(C)N[Si](C)(C)C
1513,B-6218,Octa-1.7-diene,XWJBRBSPAODJER-UHFFFAOYSA-N,C=CCCCCC=C,003710-30-3,-4.023267633,C=CCCCCC=C
1514,B-6219,3.3-dimethylbut-1-yne,PPWNCLVNXGCGAF-UHFFFAOYSA-N,CC(C)(C)C#C,000917-92-0,-2.613524703,C#CC(C)(C)C
1515,B-6220,3.3.4.4.5.5.6.6.7.7.8.8.8-Tridecafluorooct-1-ene,FYQFWFHDPNXORA-UHFFFAOYSA-N,C=CC(C(C(C(C(C(F)(F)F)(F)F)(F)F)(F)F)(F)F)(F)F,025291-17-2,-5.45640481,C=CC(F)(F)C(F)(F)C(F)(F)C(F)(F)C(F)(F)C(F)(F)F
1516,B-6221,N.N-dimethyldodecan-1-amine,YWFWDNVOPHGWMX-UHFFFAOYSA-N,CCCCCCCCCCCCN(C)C,000112-18-5,-3.761004088,CCCCCCCCCCCCN(C)C
1517,B-6222,trichloro-deuteriomethane,HEDRZPFGACZZDS-MICDWDOJSA-N,[2H]C(Cl)(Cl)Cl,000865-49-6,-1.417811299,[H]C(Cl)(Cl)Cl
1518,B-6223,2-ethoxy-1.3-dimethylcyclohexane,HMKOSXMYMMZQQM-UHFFFAOYSA-N,CCOC1C(CCCC1C)C,286472-48-8,-4.343222151,CCOC1C(C)CCCC1C
1519,B-6224,4-methyl-1-oxaspiro[5.5]undec-2-ene,WJHAXQNOQJKTQV-UHFFFAOYSA-N,CC1CC2(CCCCC2)OC=C1,006925-69-5,-6.145430121,CC1C=COC2(CCCCC2)C1
1520,B-6225,1-ethoxybutane,PZHIWRCQKBBTOW-UHFFFAOYSA-N,CCCCOCC,000628-81-9,-1.549956409,CCCCOCC
1521,B-6227,3.4-Dihydro-2H-pyran,BUDQDWGNQVEFAC-UHFFFAOYSA-N,C1CC=COC1,000110-87-2,-1.038396148,C1=COCCC1
1522,B-6228,(1S.2R.5S.7R.8R)-8-methoxy-2.6.6.8-tetramethyltricyclo[5.3.1.01.5]undecane,HRGPYCVTDOECMG-RHBQXOTJSA-N,C[C@@H]1CC[C@@H]2[C@]13CC[C@@]([C@H](C3)C2(C)C)(C)OC,067874-81-1,-4.74017277,COC1(C)CCC23CC1C(C)(C)C2CCC3C
1523,B-6229,2.4-Dichloro-1-methylbenzene,FUNUTBJJKQIVSY-UHFFFAOYSA-N,CC1=C(C=C(C=C1)Cl)Cl,000095-73-8,-4.303817885,Cc1ccc(Cl)cc1Cl
1524,B-6230,7-methyl-N.N-bis(7-methyloctyl)octan-1-amine,YGLJGOMFUHQSBN-UHFFFAOYSA-N,CC(C)CCCCCCN(CCCCCCC(C)C)CCCCCCC(C)C,038725-13-2,-7.671597738,CC(C)CCCCCCN(CCCCCCC(C)C)CCCCCCC(C)C
1525,B-6231,2-Bromobutane,UPSXAPQYNGXVBF-UHFFFAOYSA-N,CCC(C)Br,000078-76-2,-3.111475245,CCC(C)Br
1526,B-6232,1.3.5-tri(propan-2-yl)benzene,VUMCUSHVMYIRMB-UHFFFAOYSA-N,CC(C)C1=CC(=CC(=C1)C(C)C)C(C)C,000717-74-8,-3.611414414,CC(C)c1cc(C(C)C)cc(C(C)C)c1
1527,B-6233,2-bromo-4-chloro-1-propan-2-ylbenzene,BCARRKVCHXVTJE-UHFFFAOYSA-N,CC(C)C1=C(C=C(C=C1)Cl)Br,1369828-32-9,-5.222223942,CC(C)c1ccc(Cl)cc1Br
1528,B-6234,1-Bromo-4-fluorobenzene,AITNMTXHTIIIBB-UHFFFAOYSA-N,C1=CC(=CC=C1F)Br,000460-00-4,-2.955509518,Fc1ccc(Br)cc1
1529,B-6235,1.1.1.2-TETRAFLUOROETHANE,LVGUZGTVOIAKKC-UHFFFAOYSA-N,C(C(F)(F)F)F,000811-97-2,-2.008733846,FCC(F)(F)F
1530,B-6236,2-chloro-1-fluoro-4-(trifluoromethyl)benzene,BKHVEYHSOXVAOP-UHFFFAOYSA-N,C1=CC(=C(C=C1C(F)(F)F)Cl)F,078068-85-6,-3.671523618,Fc1ccc(C(F)(F)F)cc1Cl
1531,B-6237,1.3-di(propan-2-yl)benzene,UNEATYXSUBPPKP-UHFFFAOYSA-N,CC(C)C1=CC(=CC=C1)C(C)C,000099-62-7,-6.35291698,CC(C)c1cccc(C(C)C)c1
1532,B-6238,4-ethoxy-4.8.8-trimethyl-9-methylidenebicyclo[3.3.1]nonane,LUNAXRIJWWBQTE-UHFFFAOYSA-N,CCOC1(CCC2C(=C)C1CCC2(C)C)C,068845-00-1,-4.734291949,C=C1C2CCC(C)(OCC)C1CCC2(C)C
1533,B-6239,(3E.7E)-deca-1.3.7-triene,FDBJNQUXZRDJHC-KQQUZDAGSA-N,CC/C=C/CC/C=C/C=C,068526-56-7,-3.100869404,C=CC=CCCC=CCC
1534,B-6240,1.2.3.3.4.4.5-heptachlorocyclopentene,AJUXFTIOMRYFRL-UHFFFAOYSA-N,C1(C(=C(C(C1(Cl)Cl)(Cl)Cl)Cl)Cl)Cl,063225-53-6,-2.373015802,ClC1=C(Cl)C(Cl)(Cl)C(Cl)(Cl)C1Cl
1535,B-6241,Thiolane,RAOIDOHSFRTOEL-UHFFFAOYSA-N,C1CCSC1,000110-01-0,-1.181879055,C1CCSC1
1536,B-6242,2.2.8.8-tetramethyl-6-oxatetracyclo[7.2.1.01.7.05.7]dodecane,VQHLGZRKOZIABH-UHFFFAOYSA-N,CC1(CCC2C3(C14CCC(C4)C3(C)C)O2)C,026619-69-2,-4.652924858,CC1(C)CCC2OC23C(C)(C)C2CCC13C2
1537,B-6243,2-ethenyl-2.6.6-trimethyloxane,NETOHYFTCONTDT-UHFFFAOYSA-N,CC1(CCCC(O1)(C)C=C)C,007392-19-0,-2.535983337,C=CC1(C)CCCC(C)(C)O1
1538,B-6244,Propane-2-thiol,KJRCEJOSASVSRA-UHFFFAOYSA-N,CC(C)S,000075-33-2,-1.602951665,CC(C)S
1539,B-6245,1.4-di(propan-2-yl)benzene,SPPWGCYEYAMHDT-UHFFFAOYSA-N,CC(C)C1=CC=C(C=C1)C(C)C,000100-18-5,-6.602794454,CC(C)c1ccc(C(C)C)cc1
1540,B-6246,propan-2-yl nitrite,SKRDXYBATCVEMS-UHFFFAOYSA-N,CC(C)ON=O,000541-42-4,-1.593821626,CC(C)ON=O
1541,B-6248,4-BROMO-1.2-DICHLOROBENZENE,CFPZDVAZISWERM-UHFFFAOYSA-N,C1=CC(=C(C=C1Br)Cl)Cl,018282-59-2,-1.011492973,Clc1ccc(Br)cc1Cl
1542,B-6249,1.2-Dichloro-4-(trifluoromethyl)benzene,XILPLWOGHPSJBK-UHFFFAOYSA-N,C1=CC(=C(C=C1C(F)(F)F)Cl)Cl,000328-84-7,-3.267984309,FC(F)(F)c1ccc(Cl)c(Cl)c1
1543,B-6250,1-ethenoxyoctadecane,QJJDJWUCRAPCOL-UHFFFAOYSA-N,CCCCCCCCCCCCCCCCCCOC=C,000930-02-9,-8.703438445,C=COCCCCCCCCCCCCCCCCCC
1544,B-6251,2.3.5.6-Tetrachloropyridine,FATBKZJZAHWCSL-UHFFFAOYSA-N,C1=C(C(=NC(=C1Cl)Cl)Cl)Cl,002402-79-1,-3.86142389,Clc1cc(Cl)c(Cl)nc1Cl
1545,B-6252,1-Chloro-3-(trifluoromethyl)benzene,YTCGOUNVIAWCMG-UHFFFAOYSA-N,C1=CC(=CC(=C1)Cl)C(F)(F)F,000098-15-7,-3.411515809,FC(F)(F)c1cccc(Cl)c1
1546,B-6253,2-methylpropan-2-thiol,WMXCDAVJEZZYLT-UHFFFAOYSA-N,CC(C)(C)S,000075-66-1,-1.787838163,CC(C)(C)S
1547,B-6254,1-tert-Butyl-4-methylbenzene,QCWXDVFBZVHKLV-UHFFFAOYSA-N,CC1=CC=C(C=C1)C(C)(C)C,000098-51-1,-4.568927094,Cc1ccc(C(C)(C)C)cc1
1548,B-6255,1-chloro-2.3-dimethylbenzene,NVLHGZIXTRYOKT-UHFFFAOYSA-N,CC1=C(C(=CC=C1)Cl)C,000608-23-1,-3.844826637,Cc1cccc(Cl)c1C
1549,B-6256,2.3.3.4.4.5-hexamethylhexane-2-thiol,YAJYJWXEWKRTPO-UHFFFAOYSA-N,CC(C)C(C)(C)C(C)(C)C(C)(C)S,025103-58-6,-7.711812379,CC(C)C(C)(C)C(C)(C)C(C)(C)S
1550,B-6257,1.1.3.3.3-pentafluoro-2-(fluoromethyl)prop-1-ene,ZOGUJMXLOXUYAP-UHFFFAOYSA-N,C(C(=C(F)F)C(F)(F)F)F,000382-10-5,-2.78040786,FCC(=C(F)F)C(F)(F)F
1551,B-6258,2-(1.2-dichloro-1.2.2-trifluoroethoxy)-1.1.2.2-tetrafluoroethanesulfonyl fluoride,WQZTYCMAGDYRFR-UHFFFAOYSA-N,C(C(F)(F)S(=O)(=O)F)(OC(C(F)(F)Cl)(F)Cl)(F)F,144728-59-6,-5.956469699,O=S(=O)(F)C(F)(F)C(F)(F)OC(F)(Cl)C(F)(F)Cl
1552,B-6259,2-ethyl-N-(2-ethylhexyl)hexan-1-amine,SAIKULLUBZKPDA-UHFFFAOYSA-N,CCCCC(CC)CNCC(CC)CCCC,000106-20-7,-4.236715722,CCCCC(CC)CNCC(CC)CCCC
1553,B-6260,4-methyl-2-(2-methylpropyl)oxane,LETLQGKRPMMKKC-UHFFFAOYSA-N,CC1CCOC(C1)CC(C)C,013477-62-8,-3.079925034,CC(C)CC1CC(C)CCO1
1554,B-6261,9-methoxytricyclo[5.2.1.02.6]dec-3-ene,QGIIMMFKVVKYGH-UHFFFAOYSA-N,COC1CC2CC1C3C2CC=C3,053018-24-9,-3.085163149,COC1CC2CC1C1C=CCC21
1555,B-6262,4-(2-methoxypropan-2-yl)-1-methylcyclohexene,YWJHQHJWHJRTAB-UHFFFAOYSA-N,CC1=CCC(CC1)C(C)(C)OC,014576-08-0,-3.296609448,COC(C)(C)C1CC=C(C)CC1
1556,B-6263,4-chloro-1.2-dimethylbenzene,HNQLMBJUMVLFCF-UHFFFAOYSA-N,CC1=C(C=C(C=C1)Cl)C,000615-60-1,-3.71665893,Cc1ccc(Cl)cc1C
1557,B-6264,Oxalyl dichloride,CTSLXHKWHWQRSH-UHFFFAOYSA-N,C(=O)(C(=O)Cl)Cl,000079-37-8,0.896446669,O=C(Cl)C(=O)Cl
1558,B-6265,ethoxy-trimethylsilane,RSIHJDGMBDPTIM-UHFFFAOYSA-N,CCO[Si](C)(C)C,001825-62-3,-2.074981741,CCO[Si](C)(C)C
1559,B-6266,1.3.3.3-tetrafluoroprop-1-ene,CDOOAUSHHFGWSA-UHFFFAOYSA-N,C(=CF)C(F)(F)F,001645-83-6,-2.485357517,FC=CC(F)(F)F
1560,B-6267,1.2-di(ethenyl)benzene,MYRTYDVEIRVNKP-UHFFFAOYSA-N,C=CC1=CC=CC=C1C=C,001321-74-0,-3.394414988,C=Cc1ccccc1C=C
1561,B-6270,1.4-dibromo-2-ethenylbenzene,KWVKCGGJLLNVSC-UHFFFAOYSA-N,C=CC1=C(C=CC(=C1)Br)Br,125904-11-2,-4.578729413,C=Cc1cc(Br)ccc1Br
1562,B-6271,1-Chloro-2-(trichloromethyl)benzene,MFHPYLFZSCSNST-UHFFFAOYSA-N,C1=CC=C(C(=C1)C(Cl)(Cl)Cl)Cl,002136-89-2,-5.043932341,Clc1ccccc1C(Cl)(Cl)Cl
1563,B-6272,1H-Indene,YBYIRNPNPLQARY-UHFFFAOYSA-N,C1C=CC2=CC=CC=C21,000095-13-6,-2.832068718,C1=Cc2ccccc2C1
1564,B-6273,Cyclopropanamine,HTJDQJBWANPRPF-UHFFFAOYSA-N,C1CC1N,000765-30-0,1.243401923,NC1CC1
1565,B-6274,2-methyl-2-(2-methylundecan-2-yldisulfanyl)undecane,LEDIWWJKWAMGLD-UHFFFAOYSA-N,CCCCCCCCCC(C)(C)SSC(C)(C)CCCCCCCCC,027458-90-8,-9.190093471,CCCCCCCCCC(C)(C)SSC(C)(C)CCCCCCCCC
1566,B-6276,2-propyloxirane,SYURNNNQIFDVCA-UHFFFAOYSA-N,CCCC1CO1,001003-14-1,-0.573443755,CCCC1CO1
1567,B-6277,Undecylbenzene,XBEADGFTLHRJRB-UHFFFAOYSA-N,CCCCCCCCCCCC1=CC=CC=C1,067774-74-7,-6.75346759,CCCCCCCCCCCc1ccccc1
1568,B-6278,(3aR.5aS.9aS.9bR)-3a.6.6.9a-tetramethyl-2.4.5.5a.7.8.9.9b-octahydro-1H-naphtho[7.8-b]furan,YPZUZOLGGMJZJO-LQKXBSAESA-N,C[C@]12CCCC([C@@H]1CC[C@@]3([C@@H]2CCO3)C)(C)C,006790-58-5,-5.099483377,CC1(C)CCCC2(C)C1CCC1(C)OCCC12
1569,B-6279,Dodecane-1-thiol,WNAHIZMDSQCWRP-UHFFFAOYSA-N,CCCCCCCCCCCCS,000112-55-0,-7.573811169,CCCCCCCCCCCCS
1570,B-6280,2.3-Dimethyloxirane,PQXKWPLDPFFDJP-UHFFFAOYSA-N,CC1C(O1)C,003266-23-7,0.397297487,CC1OC1C
1571,B-6281,(E)-18-ethoxyoctadec-3-ene,WBCCOWHDSAVXAO-AATRIKPKSA-N,CC/C=C/CCCCCCCCCCCCCCOCC,068920-66-1,-4.109028952,CCC=CCCCCCCCCCCCCCCOCC
1572,B-6282,ethenoxycyclohexane,VGIYPVFBQRUBDD-UHFFFAOYSA-N,C=COC1CCCCC1,002182-55-0,-2.582538532,C=COC1CCCCC1
1573,B-6283,8-tricyclo[5.2.1.02.6]decanylmethanol,HSPRVWPULGKMRC-UHFFFAOYSA-N,C1CC2C(C1)C3CC2CC3CO,057526-50-8,-2.618734576,OCC1CC2CC1C1CCCC21
1574,B-6284,1-(2.2-dimethylpropyldisulfanyl)-2.2-dimethylpropane,SEZZRXXPRCBINH-UHFFFAOYSA-N,CC(C)(C)CSSCC(C)(C)C,068937-96-2,-4.712657697,CC(C)(C)CSSCC(C)(C)C
1575,B-6285,4-Chloro-1-methylpiperidine,MYGXGCCFTPKWIH-UHFFFAOYSA-N,CN1CCC(CC1)Cl,005570-77-4,-1.940353602,CN1CCC(Cl)CC1
1576,B-6286,3.3-bis(methoxymethyl)-2.6-dimethylheptane,BHPDSAAGSUWVMP-UHFFFAOYSA-N,CC(C)CCC(COC)(COC)C(C)C,129228-11-1,-4.63621299,COCC(CCC(C)C)(COC)C(C)C
1577,B-6287,2-decyloxirane,MPGABYXKKCLIRW-UHFFFAOYSA-N,CCCCCCCCCCC1CO1,002855-19-8,-5.923152137,CCCCCCCCCCC1CO1
1578,B-6288,1-(1-cyclohex-2-enyl)-4-(1-cyclohex-3-enyl)benzene,TVBYFUMVFJKKNJ-UHFFFAOYSA-N,C1CC=CC(C1)C2=CC=C(C=C2)C3CCC=CC3,061788-32-7,-6.591925041,C1=CC(c2ccc(C3CC=CCC3)cc2)CCC1
1579,B-6289,7-chloro-3-methyl-1-benzothiophene,PIURQZBTTSWWOY-UHFFFAOYSA-N,CC1=CSC2=C1C=CC=C2Cl,017514-68-0,-4.278034522,Cc1csc2c(Cl)cccc12
1580,B-6290,1-Methoxy-2-methylbenzene,DTFKRVXLBCAIOZ-UHFFFAOYSA-N,CC1=CC=CC=C1OC,000578-58-5,-2.68908126,COc1ccccc1C
1581,B-6291,3.6-dimethylheptan-2-ol,NTDKHABICKZMPG-UHFFFAOYSA-N,CC(C)CCC(C)C(C)O,1247790-47-1,-2.413279895,CC(C)CCC(C)C(C)O
1582,B-6292,1-(2-chlorophenyl)-N.N-dimethylmethanamine,MZKKJAOOPDDXQQ-UHFFFAOYSA-N,CN(C)CC1=CC=CC=C1Cl,010175-31-2,-0.136141139,CN(C)Cc1ccccc1Cl
1583,B-6293,ethenyl-(ethenyl-dimethylsilyl)oxy-dimethylsilane,BITPLIXHRASDQB-UHFFFAOYSA-N,C[Si](C)(C=C)O[Si](C)(C)C=C,002627-95-4,-5.95447929,C=C[Si](C)(C)O[Si](C)(C)C=C
1584,B-6294,1.1.2.2.3.3.4-heptafluorocyclopentane,IDBYQQQHBYGLEQ-UHFFFAOYSA-N,C1C(C(C(C1(F)F)(F)F)(F)F)F,015290-77-4,-2.436886456,FC1CC(F)(F)C(F)(F)C1(F)F
1585,B-6295,2-butan-2-ylcyclohexan-1-one,RQXTZKGDMNIWJF-UHFFFAOYSA-N,CCC(C)C1CCCCC1=O,014765-30-1,-2.427053864,CCC(C)C1CCCCC1=O
1586,B-6296,7.7.8.9.9-pentamethyl-4.4a.5.6.8.9b-hexahydrocyclopenta[h][1.3]benzodioxine,NJQDALIDWNJDSW-UHFFFAOYSA-N,CC1C(C2=C(C1(C)C)C3C(CC2)COCO3)(C)C,365411-50-3,-4.274748341,CC1C(C)(C)C2=C(C3OCOCC3CC2)C1(C)C
1587,B-6297,[(1S.2S.3S.5R)-2.7.7-trimethyl-3-bicyclo[3.1.1]heptanyl]methanamine,MUOITVAMHSVXLO-IMSYWVGJSA-N,C[C@@H]1[C@H](C[C@H]2C[C@@H]1C2(C)C)CN,057357-85-4,-1.144298081,CC1C(CN)CC2CC1C2(C)C
1588,B-6298,propan-2-yl 2.2.2-trifluoroacetate,ASAXRKSDVDALDT-UHFFFAOYSA-N,CC(C)OC(=O)C(F)(F)F,000400-38-4,-1.224931918,CC(C)OC(=O)C(F)(F)F
1589,B-6300,ethenyl 2-ethylhexanoate,IGBZOHMCHDADGY-UHFFFAOYSA-N,CCCCC(CC)C(=O)OC=C,000094-04-2,-4.151908425,C=COC(=O)C(CC)CCCC
1590,B-6301,2.2.3.4-tetramethyl-4-(2.3.4.4-tetramethylpentan-2-ylsulfanyldisulfanyl)pentane,AVVJXRYTKMKDQS-UHFFFAOYSA-N,CC(C(C)(C)C)C(C)(C)SSSC(C)(C)C(C)C(C)(C)C,068425-16-1,-9.129935421,CC(C(C)(C)C)C(C)(C)SSSC(C)(C)C(C)C(C)(C)C
1591,B-6302,propan-2-yl chloroformate,IVRIRQXJSNCSPQ-UHFFFAOYSA-N,CC(C)OC(=O)Cl,000108-23-6,-0.988291484,CC(C)OC(=O)Cl
1592,B-6303,(6S.8S)-2.2.6.8-tetramethyltricyclo[5.3.1.03.8]undecan-3-ol,GGHMUJBZYLPWFD-DUNKBJDJSA-N,C[C@H]1CCC2([C@@]3(C1CC(C2(C)C)CC3)C)O,005986-55-0,-3.725899524,CC1CCC2(O)C(C)(C)C3CCC2(C)C1C3
1593,B-6304,hexadecan-1-amine,FJLUATLTXUNBOT-UHFFFAOYSA-N,CCCCCCCCCCCCCCCCN,068037-95-6,-3.803060161,CCCCCCCCCCCCCCCCN
1594,B-6305,2-dodecyloxirane,IOHJQSFEAYDZGF-UHFFFAOYSA-N,CCCCCCCCCCCCC1CO1,003234-28-4,-5.984679893,CCCCCCCCCCCCC1CO1
1595,B-6306,2-Methylbutanal,BYGQBDHUGHBGMD-UHFFFAOYSA-N,CCC(C)C=O,000096-17-3,-0.821228238,CCC(C)C=O
1596,B-6307,ethenyl propanoate,UIWXSTHGICQLQT-UHFFFAOYSA-N,CCC(=O)OC=C,000105-38-4,-1.124289987,C=COC(=O)CC
1597,B-6308,1-Methoxy-4-methylbenzene,CHLICZRVGGXEOD-UHFFFAOYSA-N,CC1=CC=C(C=C1)OC,000104-93-8,-2.339539968,COc1ccc(C)cc1
1598,B-6309,3-[(1S)-1.7.7-trimethyl-2-bicyclo[2.2.1]heptanyl]cyclohexan-1-ol,IGEVVMFDMLDFFU-YFPPJOKWSA-N,C[C@@]12CCC(C1(C)C)CC2C3CCCC(C3)O,003407-42-9,-4.602347783,CC1(C)C2CCC1(C)C(C1CCCC(O)C1)C2
1599,B-6310,3.7-Dimethyloct-1-en-3-ol,IUDWWFNDSJRYRV-UHFFFAOYSA-N,CC(C)CCCC(C)(C=C)O,018479-49-7,-2.465514604,C=CC(C)(O)CCCC(C)C
1600,B-6311,3.7-Dimethyloctan-3-ol,DLHQZZUEERVIGQ-UHFFFAOYSA-N,CCC(C)(CCCC(C)C)O,000078-69-3,-2.694284843,CCC(C)(O)CCCC(C)C
1601,B-6312,2.6-Dimethylheptan-2-ol,HGDVHRITTGWMJK-UHFFFAOYSA-N,CC(C)CCCC(C)(C)O,013254-34-7,-2.286978817,CC(C)CCCC(C)(C)O
1602,B-6314,1-Cyclohexylethanol,JMSUNAQVHOHLMX-UHFFFAOYSA-N,CC(C1CCCCC1)O,001193-81-3,-1.395015824,CC(O)C1CCCCC1
1603,B-6315,methyl 2.2.2-trifluoroacetate,VMVNZNXAVJHNDJ-UHFFFAOYSA-N,COC(=O)C(F)(F)F,000431-47-0,-0.647989469,COC(=O)C(F)(F)F
1604,B-6316,1.7-di(propan-2-yl)naphthalene,XNSUVOOWWSAQMZ-UHFFFAOYSA-N,CC(C)C1=CC2=C(C=CC=C2C(C)C)C=C1,094133-80-9,-6.168657049,CC(C)c1ccc2cccc(C(C)C)c2c1
1605,B-6317,3.5.5-Trimethylhexanal,WTPYRCJDOZVZON-UHFFFAOYSA-N,CC(CC=O)CC(C)(C)C,005435-64-3,-2.550963584,CC(CC=O)CC(C)(C)C
1606,B-6318,3-tricyclo[5.2.1.02.6]dec-3-enyl acetate,KARQHHMQOVRDNL-UHFFFAOYSA-N,CC(=O)OC1=CCC2C1C3CCC2C3,054830-99-8,-3.014369669,CC(=O)OC1=CCC2C3CCC(C3)C12
1607,B-6319,2-(2-Ethoxyethoxy)-2-methylpropane,NUNQKTCKURIZQX-UHFFFAOYSA-N,CCOCCOC(C)(C)C,051422-54-9,-0.687912255,CCOCCOC(C)(C)C
1608,B-6321,tert-butyl prop-2-enoate,ISXSCDLOGDJUNJ-UHFFFAOYSA-N,CC(C)(C)OC(=O)C=C,001663-39-4,-1.806758422,C=CC(=O)OC(C)(C)C
1609,B-6322,4-methylidene-2-(2-methylprop-1-enyl)oxane,JRIATCFPZFOVNP-UHFFFAOYSA-N,CC(=CC1CC(=C)CCO1)C,060857-05-8,-2.510418936,C=C1CCOC(C=C(C)C)C1
1610,B-6323,[(E)-2-bromoethenyl]benzene,YMOONIIMQBGTDU-VOTSOKGWSA-N,C1=CC=C(C=C1)/C=C/Br,000103-64-0,-3.509562782,BrC=Cc1ccccc1
1611,B-6324,Ethyl 2-methylbutanoate,HCRBXQFHJMCTLF-UHFFFAOYSA-N,CCC(C)C(=O)OCC,007452-79-1,-2.336414367,CCOC(=O)C(C)CC
1612,B-6325,N.N-dimethyl-3-octadecoxypropan-1-amine,BHQZSXXOSYWJSZ-UHFFFAOYSA-N,CCCCCCCCCCCCCCCCCCOCCCN(C)C,017517-01-0,-6.852048168,CCCCCCCCCCCCCCCCCCOCCCN(C)C
1613,B-6326,1-ethyl-2-(3-methylbutyl)cyclopentan-1-ol,SFKWXVLCKLVKFE-UHFFFAOYSA-N,CCC1(CCCC1CCC(C)C)O,1465004-85-6,-2.855641695,CCC1(O)CCCC1CCC(C)C
1614,B-6327,N-ethyl-1-propan-2-yloxymethanimidothioic acid,KIACEOHPIRTHMI-UHFFFAOYSA-N,CCN=C(OC(C)C)S,000141-98-0,-1.744764597,CCN=C(S)OC(C)C
1615,B-6328,2-cyclododecylpropan-1-ol,WKHTUDYDJUHYMK-UHFFFAOYSA-N,CC(CO)C1CCCCCCCCCCC1,118562-73-5,-5.451789121,CC(CO)C1CCCCCCCCCCC1
1616,B-6329,ethenyl-dimethoxy-methylsilane,ZLNAFSPCNATQPQ-UHFFFAOYSA-N,CO[Si](C)(C=C)OC,016753-62-1,0.577624898,C=C[Si](C)(OC)OC
1617,B-6330,CYCLODODECANOL,SFVWPXMPRCIVOK-UHFFFAOYSA-N,C1CCCCCC(CCCCC1)O,001724-39-6,-3.663514827,OC1CCCCCCCCCCC1
1618,B-6331,tricyclo[5.2.1.02.6]decane-3-carbaldehyde,USPJNXWHVJTDJW-UHFFFAOYSA-N,C1CC2CC1C3C2C(CC3)C=O,030772-79-3,-2.419964474,O=CC1CCC2C3CCC(C3)C12
1619,B-6332,8-ethylundecan-1-amine,KFBNTNYCQVDLBK-UHFFFAOYSA-N,CCCC(CC)CCCCCCCN,086089-17-0,-3.697618986,CCCC(CC)CCCCCCCN
1620,B-6333,1.3-di(prop-1-en-2-yl)benzene,IBVPVTPPYGGAEL-UHFFFAOYSA-N,CC(=C)C1=CC(=CC=C1)C(=C)C,003748-13-8,-4.451135383,C=C(C)c1cccc(C(=C)C)c1
1621,B-6334,(1S.5S)-3.3.5-trimethylcyclohexan-1-ol,BRRVXFOKWJKTGG-SFYZADRCSA-N,C[C@@H]1C[C@@H](CC(C1)(C)C)O,000933-48-2,-1.89775107,CC1CC(O)CC(C)(C)C1
1622,B-6335,2.7.7-trimethylbicyclo[3.1.1]heptane-3-carbaldehyde,VUNCLQCPKWLBRY-UHFFFAOYSA-N,CC1C(CC2CC1C2(C)C)C=O,060113-43-1,-3.558036736,CC1C(C=O)CC2CC1C2(C)C
1623,B-6336,2.2.5-Trimethyl-5-pentylcyclopentan-1-one,PUKWIVZFEZFVAT-UHFFFAOYSA-N,CCCCCC1(CCC(C1=O)(C)C)C,065443-14-3,-4.016529287,CCCCCC1(C)CCC(C)(C)C1=O
1624,B-6337,2-Methyldecanal,LBICMZLDYMBIGA-UHFFFAOYSA-N,CCCCCCCCC(C)C=O,019009-56-4,-4.027079874,CCCCCCCCC(C)C=O
1625,B-6338,3.7-Dimethyloctanal,UCSIFMPORANABL-UHFFFAOYSA-N,CC(C)CCCC(C)CC=O,005988-91-0,-3.80647856,CC(C)CCCC(C)CC=O
1626,B-6339,1.2-dimethylcyclohex-3-ene-1-carbaldehyde,CYGGTUUCLIFNIU-UHFFFAOYSA-N,CC1C=CCCC1(C)C=O,027939-60-2,-2.558700401,CC1C=CCCC1(C)C=O
1627,B-6340,2-Butyl-4.4.6-trimethyl-1.3-dioxane,QUBNQDBPPTZYJL-UHFFFAOYSA-N,CCCCC1OC(CC(O1)(C)C)C,054546-26-8,-2.453294096,CCCCC1OC(C)CC(C)(C)O1
1628,B-6341,N.N.N&apos-tributylcarbamimidothioic acid,UDYXMTORTDACTG-UHFFFAOYSA-N,CCCCN=C(N(CCCC)CCCC)S,002422-88-0,-4.184048028,CCCCN=C(S)N(CCCC)CCCC
1629,B-6342,2-Methylundecanal,NFAVNWJJYQAGNB-UHFFFAOYSA-N,CCCCCCCCCC(C)C=O,000110-41-8,-5.151631466,CCCCCCCCCC(C)C=O
1630,B-6343,1.1-Dimethoxycyclododecane,XXNCXSHVDVCRKB-UHFFFAOYSA-N,COC1(CCCCCCCCCCC1)OC,000950-33-4,-4.125650548,COC1(OC)CCCCCCCCCCC1
1631,B-6344,2.2-dimethyl-4-methylidene-1.3-dioxolane,CRGFTBZVOWHYIS-UHFFFAOYSA-N,CC1(OCC(=C)O1)C,019358-05-5,-1.735233032,C=C1COC(C)(C)O1
1632,B-6345,2-Propylheptan-1-ol,YLQLIQIAXYRMDL-UHFFFAOYSA-N,CCCCCC(CCC)CO,010042-59-8,-3.285620969,CCCCCC(CO)CCC
1633,B-6346,Pentyl pentanoate,FGPPDYNPZTUNIU-UHFFFAOYSA-N,CCCCCOC(=O)CCCC,002173-56-0,-3.624478278,CCCCCOC(=O)CCCC
1634,B-6347,(4S)-4-propylnonan-1-ol,YJIYBYOWBOONOU-LBPRGKRZSA-N,CCCCC[C@H](CCC)CCCO,090604-40-3,-5.367208646,CCCCCC(CCC)CCCO
1635,B-6348,methyl non-2-enoate,ZWNPUELCBZVMDA-UHFFFAOYSA-N,CCCCCCC=CC(=O)OC,014952-06-8,-3.667608586,CCCCCCC=CC(=O)OC
1636,B-6350,1-methyl-2-(2-methylphenoxy)benzene,CYXMOAZSOPXQOD-UHFFFAOYSA-N,CC1=CC=CC=C1OC2=CC=CC=C2C,028299-41-4,-4.850085833,Cc1ccccc1Oc1ccccc1C
1637,B-6351,octadecan-1-amine,REYJJPSVUYRZGE-UHFFFAOYSA-N,CCCCCCCCCCCCCCCCCCN,000124-30-1,-3.850795799,CCCCCCCCCCCCCCCCCCN
1638,B-6352,Pentyl formate,DIQMPQMYFZXDAX-UHFFFAOYSA-N,CCCCCOC=O,000638-49-3,-1.405137957,CCCCCOC=O