,C_ID,Name,InChIKey,SMILES,CAS,LogS,smiles_canon
3275,B-8240,3-Phenylpropanoyl chloride,MFEILWXBDBCWKF-UHFFFAOYSA-N,ClC(=O)CCC1CCCCC1,000645-45-4,-1.906762799,O=C(Cl)CCC1CCCCC1
3276,B-8243,6-chloro-4-methyl-1-benzothiophen-3-one,UPPUKRIDAPMTRP-UHFFFAOYSA-N,ClC1CC(C)C2C(C1)SCC2=O,005858-07-1,-3.093999193,CC1CC(Cl)CC2SCC(=O)C12
3277,B-8244,2-OCTYLPHENOL,DUIOKRXOKLLURE-UHFFFAOYSA-N,CCCCCCCCC1CCCCC1O,067554-50-1,-4.821799863,CCCCCCCCC1CCCCC1O
3278,B-8245,1-tert-butyl-4.4-di(phenyl)piperidine,QIHLUZAFSSMXHQ-UHFFFAOYSA-N,CC(N1CCC(CC1)(C1CCCCC1)C1CCCCC1)(C)C,057982-78-2,-4.688087865,CC(C)(C)N1CCC(C2CCCCC2)(C2CCCCC2)CC1
3279,B-8246,1-phenylpentan-1-ol,OVGORFFCBUIFIA-UHFFFAOYSA-N,CCCCC(C1CCCCC1)O,000583-03-9,-2.246503763,CCCCC(O)C1CCCCC1
3280,B-8250,(2S)-N-ethyl-1-[3-(trifluoromethyl)phenyl]propan-2-amine,DBGIVFWFUFKIQN-VIFPVBQESA-N,CCN[C@H](CC1CCCC(C1)C(F)(F)F)C,003239-44-9,-2.749207042,CCNC(C)CC1CCCC(C(F)(F)F)C1
3281,B-8252,4-Phenyl-1.3-thiazole,KXCQDIWJQBSUJF-UHFFFAOYSA-N,C1CCC(CC1)C1CSCN1,001826-12-6,-2.731753116,C1CCC(C2CSCN2)CC1
3282,B-8253,1-[2-(4-chlorophenyl)ethyl]-2-methyl-3.4.5.6.7.8-hexahydro-1H-isoquinoline,XRWZTKSYDDGGAQ-UHFFFAOYSA-N,CN1CCC2=C(C1CCC1CCC(CC1)Cl)CCCC2,063937-99-5,-5.46216878,CN1CCC2=C(CCCC2)C1CCC1CCC(Cl)CC1
3283,B-8256,3-(2-methylpiperidin-1-yl)propyl 4-chlorobenzoate,QPKUCZZRNHHWCJ-UHFFFAOYSA-N,ClC1CCC(CC1)C(=O)OCCCN1CCCCC1C,063916-71-2,-4.140594688,CC1CCCCN1CCCOC(=O)C1CCC(Cl)CC1
3284,B-8260,1-methyl-3-(1-methylpyrrolidin-2-yl)indole,ONASFMNNONUTBN-UHFFFAOYSA-N,CN1CCCC1C1CN(C2C1CCCC2)C,019137-61-2,-2.143525768,CN1CCCC1C1CN(C)C2CCCCC12
3285,B-8261,1.2.3.4-tetrahydronaphthalen-2-amine,LCGFVWKNXLRFIF-UHFFFAOYSA-N,NC1CCC2C(C1)CCCC2,103733-33-1,-1.044118093,NC1CCC2CCCCC2C1
3286,B-8262,N.N-dimethyl-1-[4-(phenoxy)phenyl]ethanamine,FYNJPVIXOGBPMW-UHFFFAOYSA-N,CN(C(C1CCC(CC1)OC1CCCCC1)C)C,063992-01-8,-3.557192393,CC(C1CCC(OC2CCCCC2)CC1)N(C)C
3287,B-8264,3-[(E)-3-(2-chlorophenyl)prop-2-enyl]-8-methyl-3.8-diazabicyclo[3.2.1]octane,VLIZSQKTSLFMRP-GQCTYLIASA-N,CN1C2CCC1CN(C2)C/C=C/C1CCCCC1Cl,063978-16-5,-3.170337047,CN1C2CCC1CN(CC=CC1CCCCC1Cl)C2
3288,B-8265,2.4-di(butan-2-yl)phenol,JERZAOOJWPHIDG-UHFFFAOYSA-N,CCC(C1CCC(C(C1)C(CC)C)O)C,001849-18-9,-4.744017312,CCC(C)C1CCC(O)C(C(C)CC)C1
3289,B-8266,3-Chlorobenzonitrile,WBUOVKBZJOIOAE-UHFFFAOYSA-N,N#CC1CCCC(C1)Cl,000766-84-7,-2.345279631,N#CC1CCCC(Cl)C1
3290,B-8268,2-(4-methoxyphenyl)-1.3-dimethylimidazolidine,UQSPFESRVJWENP-UHFFFAOYSA-N,COC1CCC(CC1)C1N(C)CCN1C,023229-39-2,-0.421269318,COC1CCC(C2N(C)CCN2C)CC1
3291,B-8269,(2S)-N-methyl-1-phenyl-N-(phenylmethyl)propan-2-amine,YXKTVDFXDRQTKV-HNNXBMFYSA-N,CN([C@H](CC1CCCCC1)C)CC1CCCCC1,000101-47-3,-3.474393747,CC(CC1CCCCC1)N(C)CC1CCCCC1
3292,B-8270,2.4-di(propan-2-yl)phenol,KEUMBYCOWGLRBQ-UHFFFAOYSA-N,CC(C1CCC(C(C1)C(C)C)O)C,002934-05-6,-3.700862068,CC(C)C1CCC(O)C(C(C)C)C1
3293,B-8272,1-(5-methylthiophen-2-yl)ethanone,YOSDTJYMDAEEAZ-UHFFFAOYSA-N,CC1CCC(S1)C(=O)C,013679-74-8,-1.729608604,CC(=O)C1CCC(C)S1
3294,B-8273,N-methyl-N-prop-2-ynyl-2.3-dihydro-1H-inden-1-amine,CSVGVHNFFZWQJU-UHFFFAOYSA-N,C#CCN(C1CCC2C1CCCC2)C,124192-86-5,-1.943522646,C#CCN(C)C1CCC2CCCCC21
3295,B-8275,3-(5.6-dihydrobenzo[b][1]benzazepin-11-yl)-N.N.2-trimethylpropan-1-amine,ZSCDBOWYZJWBIY-UHFFFAOYSA-N,CN(CC(CN1C2CCCCC2CCC2C1CCCC2)C)C,000739-71-9,-4.787215978,CC(CN(C)C)CN1C2CCCCC2CCC2CCCCC21
3296,B-8276,2.2.2-Trichloro-1-phenylethanol,ABFRBTDJEKZSRM-UHFFFAOYSA-N,OC(C(Cl)(Cl)Cl)C1CCCCC1,002000-43-3,-2.76880184,OC(C1CCCCC1)C(Cl)(Cl)Cl
3297,B-8277,2-methyl-1-[3-(phenylmethoxy)propyl]piperidine,AUDJIMCCPSCDGO-UHFFFAOYSA-N,CC1CCCCN1CCCOCC1CCCCC1,063867-62-9,-3.690076718,CC1CCCCN1CCCOCC1CCCCC1
3298,B-8279,5-chloro-2-methylsulfanyl-1.3-benzoxazole,DDQGNGANBLTNFD-UHFFFAOYSA-N,CSC1NC2C(O1)CCC(C2)Cl,064037-25-8,-3.576817971,CSC1NC2CC(Cl)CCC2O1
3299,B-8281,2-Phenylbutan-2-ol,XGLHYBVJPSZXIF-UHFFFAOYSA-N,CCC(C1CCCCC1)(O)C,001565-75-9,-1.869234582,CCC(C)(O)C1CCCCC1
3300,B-8283,2-Propylaniline,WKURVXXDGMYSDP-UHFFFAOYSA-N,CCCC1CCCCC1N,001821-39-2,-2.413421548,CCCC1CCCCC1N
3301,B-8284,N.N-diethyl-1-[4-(phenoxy)phenyl]ethanamine,OOKXTIAMWIVZNL-UHFFFAOYSA-N,CCN(C(C1CCC(CC1)OC1CCCCC1)C)CC,063991-13-9,-4.599789577,CCN(CC)C(C)C1CCC(OC2CCCCC2)CC1
3302,B-8287,4-Fluorobenzonitrile,AEKVBBNGWBBYLL-UHFFFAOYSA-N,N#CC1CCC(CC1)F,001194-02-1,-1.810193076,N#CC1CCC(F)CC1
3303,B-8291,5-methyl-2-(4-methylphenyl)-5-propyl-1.3.2-dioxaborinane,WOZGAFMPOSBQCU-UHFFFAOYSA-N,CCCC1(C)COB(OC1)C1CCC(CC1)C,002430-46-8,-3.758276248,CCCC1(C)COB(C2CCC(C)CC2)OC1
3304,B-8292,2.3-Dihydro-1H-inden-1-ol,YIAPLDFPUUJILH-UHFFFAOYSA-N,OC1CCC2C1CCCC2,006351-10-6,-1.317448764,OC1CCC2CCCCC12
3305,B-8293,2.3.5.6-tetrachlorobenzene-1.4-dicarbonitrile,TXRVDQMSXQKAPG-UHFFFAOYSA-N,N#CC1C(Cl)C(Cl)C(C(C1Cl)Cl)C#N,001897-41-2,-4.534859899,N#CC1C(Cl)C(Cl)C(C#N)C(Cl)C1Cl
3306,B-8294,4.5-dimethyl-2-[(1S.4R.6R)-1.7.7-trimethyl-6-bicyclo[2.2.1]heptanyl]phenol,RNRHMQWZFJXKLZ-XUWXXGDYSA-N,OC1CC(C)C(CC1[C@@H]1C[C@@H]2C([C@@]1(C)CC2)(C)C)C,013741-18-9,-6.174254811,CC1CC(O)C(C2CC3CCC2(C)C3(C)C)CC1C
3307,B-8295,N-propoxy-1-pyridin-3-ylmethanimine,QNBOLLYOPCWBRB-DHZHZOJOSA-N,CCCO/N=C/C1CCCNC1,006267-23-8,-0.87495017,CCCON=CC1CCCNC1
3308,B-8296,N-methoxy-1-pyridin-4-ylmethanimine,CPJAUCNNLLTZAX-UHFFFAOYSA-N,CON=CC1CCNCC1,057980-42-4,0.166999559,CON=CC1CCNCC1
3309,B-8297,(2S)-1-phenylpropan-2-amine,KWTSXDURSIMDCE-QMMMGPOBSA-N,C[C@@H](CC1CCCCC1)N,000051-64-9,-0.583111127,CC(N)CC1CCCCC1
3310,B-8298,butyl furan-2-carboxylate,PAMQYEWNNPDBLM-UHFFFAOYSA-N,CCCCOC(=O)C1CCCO1,000583-33-5,-2.498101451,CCCCOC(=O)C1CCCO1
3311,B-8299,1-chloro-4-thiocyanatobenzene,AUQXBIOKBXZSPG-UHFFFAOYSA-N,N#CSC1CCC(CC1)Cl,003226-37-7,-3.039160748,N#CSC1CCC(Cl)CC1
3312,B-8302,N-(furan-2-ylmethyl)-N-methyl-1-phenylpropan-2-amine,DLGIIZAHQPTVCJ-UHFFFAOYSA-N,CN(C(CC1CCCCC1)C)CC1CCCO1,013445-60-8,-2.863517967,CC(CC1CCCCC1)N(C)CC1CCCO1
3313,B-8305,2-methyl-4.6-di(piperidin-1-yl)-1.3.5-triazine,FRFKVIFCSZBCCB-UHFFFAOYSA-N,CC1NC(NC(N1)N1CCCCC1)N1CCCCC1,026234-41-3,-5.493498745,CC1NC(N2CCCCC2)NC(N2CCCCC2)N1
3314,B-8307,2-Pentylphenol,MEEKGULDSDXFCN-UHFFFAOYSA-N,CCCCCC1CCCCC1O,001322-06-1,-3.256458698,CCCCCC1CCCCC1O
3315,B-8308,naphthalene-1-carbaldehyde,SQAINHDHICKHLX-UHFFFAOYSA-N,O=CC1CCCC2C1CCCC2,030678-61-6,-2.646354261,O=CC1CCCC2CCCCC12
3316,B-8309,5-methyl-1-phenyl-1.3.4.6-tetrahydro-2.5-benzoxazocine,RGPDEAGGEXEMMM-UHFFFAOYSA-N,CN1CCOC(C2C(C1)CCCC2)C1CCCCC1,110011-82-0,-2.645178915,CN1CCOC(C2CCCCC2)C2CCCCC2C1
3317,B-8310,1-[(3E)-3-(2-chlorothioxanthen-9-ylidene)propyl]piperidine,UONFEYAYBJCNHL-CAOOACKPSA-N,ClC1CCC2C(C1)/C(=C/CCN1CCCCC1)/C1C(S2)CCCC1,063869-64-7,-8.133055982,ClC1CCC2SC3CCCCC3C(=CCCN3CCCCC3)C2C1
3318,B-8312,N-ethyl-N'.N'-dimethyl-N-phenylethane-1.2-diamine,FWAWELGQRMERND-UHFFFAOYSA-N,CCN(C1CCCCC1)CCN(C)C,027692-91-7,-1.610050836,CCN(CCN(C)C)C1CCCCC1
3319,B-8313,3-Methylbenzonitrile,BOHCMQZJWOGWTA-UHFFFAOYSA-N,N#CC1CCCC(C1)C,000620-22-4,-2.040581581,CC1CCCC(C#N)C1
3320,B-8314,pentyl furan-2-carboxylate,BGJZMKPSRLHMME-UHFFFAOYSA-N,CCCCCOC(=O)C1CCCO1,004996-48-9,-3.020044387,CCCCCOC(=O)C1CCCO1
3321,B-8316,1-(4-Methylphenyl)ethanol,JESIHYIJKKUWIS-UHFFFAOYSA-N,CC1CCC(CC1)C(O)C,000536-50-5,-1.428037866,CC1CCC(C(C)O)CC1
3322,B-8317,1-[(4-chlorophenyl)-phenylmethyl]-4-methylpiperazine,WFNAKBGANONZEQ-UHFFFAOYSA-N,CN1CCN(CC1)C(C1CCC(CC1)Cl)C1CCCCC1,000082-93-9,-2.879202564,CN1CCN(C(C2CCCCC2)C2CCC(Cl)CC2)CC1
3323,B-8318,pyrazin-2-ylmethanethiol,VQFGDOHENLRPFB-UHFFFAOYSA-N,SCC1CNCCN1,059021-02-2,-0.490320034,SCC1CNCCN1
3324,B-8320,(3E)-N.N-dimethyl-3-(6-thiatricyclo[8.4.0.03.7]tetradeca-1(14).3(7).4.10.12-pentaen-2-ylidene)propan-1-amine,ZDYPMKZEUSYJQI-LZYBPNLTSA-N,CN(CC/C=C\1/C2CCSC2CCC2C1CCCC2)C,014942-31-5,-5.443850257,CN(C)CCC=C1C2CCCCC2CCC2SCCC12
3325,B-8321,(1R.2S)-2-phenylcyclopropan-1-amine,AELCINSCMGFISI-DTWKUNHWSA-N,N[C@@H]1C[C@H]1C1CCCCC1,003721-26-4,-0.437848392,NC1CC1C1CCCCC1
3326,B-8323,3-[di(phenyl)methyl]-8-methyl-3.8-diazabicyclo[3.2.1]octane,VPIRVRHBFOMBQB-UHFFFAOYSA-N,CN1C2CCC1CN(C2)C(C1CCCCC1)C1CCCCC1,063978-04-1,-3.474789893,CN1C2CCC1CN(C(C1CCCCC1)C1CCCCC1)C2
3327,B-8325,2-methyl-3-phenylbutan-2-amine,UMWAUEZOGHNSCH-UHFFFAOYSA-N,CC(C(N)(C)C)C1CCCCC1,000434-43-5,-1.62742973,CC(C1CCCCC1)C(C)(C)N
3328,B-8326,N-(furan-2-ylmethylidene)hydroxylamine,UYTMLDBQFLIQJA-GQCTYLIASA-N,O/N=C/C1CCCO1,001121-47-7,-0.640880342,ON=CC1CCCO1
3329,B-8329,5.11-dimethyl-6H-benzo[c][1.5]benzodiazepine,ISNMCLQAHBYOKS-UHFFFAOYSA-N,CN1C2CCCCC2CN(C2C1CCCC2)C,032047-74-8,-5.728628823,CN1CC2CCCCC2N(C)C2CCCCC21
3330,B-8330,(2.4.6-trimethylphenyl)methanol,LODDFDHPSIYCTK-UHFFFAOYSA-N,OCC1C(C)CC(CC1C)C,004170-90-5,-2.108544758,CC1CC(C)C(CO)C(C)C1
3331,B-8331,1-methyl-3-(9H-thioxanthen-9-ylmethyl)piperidine,MJFJKKXQDNNUJF-UHFFFAOYSA-N,CN1CCCC(C1)CC1C2CCCCC2SC2C1CCCC2,004969-02-2,-4.881986983,CN1CCCC(CC2C3CCCCC3SC3CCCCC32)C1
3332,B-8332,2-Phenyl-1.3-dithiolane,RKBPDPLCHXWHRQ-UHFFFAOYSA-N,C1CSC(S1)C1CCCCC1,005616-55-7,-3.367022524,C1CCC(C2SCCS2)CC1
3333,B-8334,4-diethylamino-1-phenylbutan-1-one,BXENNERVHQAIAY-UHFFFAOYSA-N,CCN(CCCC(=O)C1CCCCC1)CC,141809-44-1,-2.220520147,CCN(CC)CCCC(=O)C1CCCCC1
3334,B-8335,2-dimethylamino-1-phenylpropan-1-one,KBHMHROOFHVLBA-UHFFFAOYSA-N,CC(C(=O)C1CCCCC1)N(C)C,015351-09-4,-1.244687703,CC(C(=O)C1CCCCC1)N(C)C
3335,B-8337,3-(2-hexylpiperidin-1-yl)propyl benzoate,DTNVIQYPPCCDBY-UHFFFAOYSA-N,CCCCCCC1CCCCN1CCCOC(=O)C1CCCCC1,063916-84-7,-5.947611931,CCCCCCC1CCCCN1CCCOC(=O)C1CCCCC1
3336,B-8338,2.3.5-tribromo-6-methylbenzene-1.4-diol,JOOPFYJWVJXNHM-UHFFFAOYSA-N,BrC1C(C)C(O)C(C(C1O)Br)Br,063884-43-5,-4.880605418,CC1C(O)C(Br)C(Br)C(O)C1Br
3337,B-8341,4-Bromo-2.6-dimethylphenol,ZLVFYUORUHNMBO-UHFFFAOYSA-N,BrC1CC(C)C(C(C1)C)O,058170-30-2,-3.075445454,CC1CC(Br)CC(C)C1O
3338,B-8342,3-(3-Methoxyphenyl)-1-methyl-3-propylpyrrolidine,PQUUAATYCNQHBX-UHFFFAOYSA-N,CCCC1(CCN(C1)C)C1CCCC(C1)OC,029369-01-5,-3.172117458,CCCC1(C2CCCC(OC)C2)CCN(C)C1
3339,B-8343,3.4.6-tribromo-5-methylbenzene-1.2-diol,KMNDTYWRUVCTHV-UHFFFAOYSA-N,BrC1C(C)C(Br)C(C(C1O)O)Br,056759-56-9,-4.880605418,CC1C(Br)C(O)C(O)C(Br)C1Br
3340,B-8345,3-(4-methylpiperidin-1-yl)butyl benzoate,LJDVATIOWGCFIY-UHFFFAOYSA-N,CC1CCN(CC1)C(CCOC(=O)C1CCCCC1)C,064050-29-9,-3.79847721,CC1CCN(C(C)CCOC(=O)C2CCCCC2)CC1
3341,B-8346,ethyl 10-(4-iodophenyl)undecanoate,LAYLQVBQIBQVLL-UHFFFAOYSA-N,CCOC(=O)CCCCCCCCC(C1CCC(CC1)I)C,000099-79-6,-8.376413164,CCOC(=O)CCCCCCCCC(C)C1CCC(I)CC1
3342,B-8347,3-(10.10-dimethylanthracen-9-ylidene)-N.N-dimethylpropan-1-amine,GWWLWDURRGNSRS-UHFFFAOYSA-N,CN(CCC=C1C2CCCCC2C(C2C1CCCC2)(C)C)C,005118-29-6,-5.537895086,CN(C)CCC=C1C2CCCCC2C(C)(C)C2CCCCC12
3343,B-8348,2-[3-(trifluoromethyl)phenyl]ethanamine,BPVYCXMGJPKOTQ-UHFFFAOYSA-N,NCCC1CCCC(C1)C(F)(F)F,052516-30-0,-1.538096958,NCCC1CCCC(C(F)(F)F)C1
3344,B-8350,N.N-dimethyl-3-(2-tricyclo[9.4.0.03.8]pentadeca-1(15).3.5.7.9.11.13-heptaenylidene)propan-1-amine,JURKNVYFZMSNLP-UHFFFAOYSA-N,CN(CC/C=C/1\C2CCCCC2C=CC2C1CCCC2)C,000303-53-7,-5.401335873,CN(C)CCC=C1C2CCCCC2C=CC2CCCCC12
3345,B-8351,7-Chloro-2.3-dihydro-1H-inden-4-ol,ATAJVFBUUIBIEO-UHFFFAOYSA-N,OC1CCC(C2C1CCC2)Cl,000145-94-8,-2.977221657,OC1CCC(Cl)C2CCCC12
3346,B-8353,2.2.2-trifluoro-1-(2H-quinolin-1-yl)ethanone,BWLZUZVCVOPRLI-UHFFFAOYSA-N,O=C(C(F)(F)F)N1CC=CC2C1CCCC2,030831-85-7,-3.154984441,O=C(N1CC=CC2CCCCC21)C(F)(F)F
3347,B-8354,2-hydroxy-6-methylcyclohepta-2.4.6-trien-1-one,OTXSBWFUHZIFLR-UHFFFAOYSA-N,CC1CCCC(C(=O)C1)O,000583-80-2,-0.981729269,CC1CCCC(O)C(=O)C1
3348,B-8355,7-Chloro-3.4-dihydro-1H-2.3-benzoxazine,GQLHUUBKEQARIM-UHFFFAOYSA-N,ClC1CCC2C(C1)CONC2,021977-12-8,-2.452745149,ClC1CCC2CNOCC2C1
3349,B-8356,3-[(E)-3-(4-chlorophenyl)prop-2-enyl]-8-methyl-3.8-diazabicyclo[3.2.1]octane,OUDYRLQMXADRRV-NSCUHMNNSA-N,CN1C2CCC1CN(C2)C/C=C/C1CCC(CC1)Cl,063978-17-6,-3.170337047,CN1C2CCC1CN(CC=CC1CCC(Cl)CC1)C2
3350,B-8357,3.4-dimethylbenzonitrile,OWISXYQFTOYGRO-UHFFFAOYSA-N,N#CC1CCC(C(C1)C)C,022884-95-3,-2.673816176,CC1CCC(C#N)CC1C
3351,B-8358,(2S.3S)-3.4-dimethyl-2-phenylmorpholine,MFOCDFTXLCYLKU-CMPLNLGQSA-N,C[C@@H]1N(C)CCO[C@H]1C1CCCCC1,016311-86-7,-1.043358872,CC1C(C2CCCCC2)OCCN1C
3352,B-8360,benzenecarbothioic S-acid,UIJGNTRUPZPVNG-UHFFFAOYSA-N,SC(=O)C1CCCCC1,000098-91-9,-1.606177786,O=C(S)C1CCCCC1
3353,B-8361,6-prop-2-enyl-5.7-dihydrobenzo[d][2]benzazepine,NYGHGTMKALXFIA-UHFFFAOYSA-N,C=CCN1CC2CCCCC2C2C(C1)CCCC2,000146-36-1,-4.691341781,C=CCN1CC2CCCCC2C2CCCCC2C1
3354,B-8362,2.3.4.5.6-pentachlorobenzoic acid,IONYGGJUUJFXJK-UHFFFAOYSA-N,ClC1C(Cl)C(C(=O)O)C(C(C1Cl)Cl)Cl,001012-84-6,-4.865802916,O=C(O)C1C(Cl)C(Cl)C(Cl)C(Cl)C1Cl
3355,B-8364,4-methoxy-6-methyl-7.8-dihydro-5H-[1.3]dioxolo[4.5-g]isoquinoline,XXANNZJIZQTCBP-UHFFFAOYSA-N,COC1C2CN(C)CCC2CC2C1OCO2,040188-45-2,-1.466373261,COC1C2CN(C)CCC2CC2OCOC21
3356,B-8366,N.N-dimethyl-3-(2-tricyclo[9.4.0.03.8]pentadeca-1(15).3.5.7.9.11.13-heptaenyl)propan-1-amine,YVBGGZGCBWNVDX-UHFFFAOYSA-N,CN(CCCC1C2CCCCC2C=CC2C1CCCC2)C,000521-80-2,-5.685727665,CN(C)CCCC1C2CCCCC2C=CC2CCCCC21
3357,B-8367,naphthalene-2-carbaldehyde,PJKVFARRVXDXAD-UHFFFAOYSA-N,O=CC1CCC2C(C1)CCCC2,000066-99-9,-2.90852954,O=CC1CCC2CCCCC2C1
3358,B-8368,3-(2-methylpiperidin-1-yl)propyl thiophene-2-carboxylate,WYDBQEACYWRGIP-UHFFFAOYSA-N,CC1CCCCN1CCCOC(=O)C1CCCS1,064048-09-5,-3.729039727,CC1CCCCN1CCCOC(=O)C1CCCS1
3359,B-8370,7-chloro-3-methyl-1.4-dihydro-2.3-benzoxazine,IKGDGLRBESDXOX-UHFFFAOYSA-N,CN1OCC2C(C1)CCC(C2)Cl,021038-14-2,-2.735038735,CN1CC2CCC(Cl)CC2CO1
3360,B-8372,N-(3-chloropropyl)-1-phenylpropan-2-amine,XXVROGAVTTXONC-UHFFFAOYSA-N,ClCCCNC(CC1CCCCC1)C,024954-70-9,-2.690103788,CC(CC1CCCCC1)NCCCCl
3361,B-8375,propan-2-yl 2H-quinoline-1-carboxylate,XBPMXUYSYAIPTR-UHFFFAOYSA-N,CC(OC(=O)N1CC=CC2C1CCCC2)C,017718-20-6,-4.299569289,CC(C)OC(=O)N1CC=CC2CCCCC21
3362,B-8376,(1R.9R.10R)-4-methoxy-17-methyl-17-azatetracyclo[7.5.3.01.10.02.7]heptadeca-2(7).3.5-trien-3-ol,FOMOAEUYWZDTNS-PMUMKWKESA-N,COC1CCC2C(C1O)[C@]13CCCC[C@H]3[C@@H](C2)N(CC1)C,003327-79-5,-3.048558204,COC1CCC2CC3C4CCCCC4(CCN3C)C2C1O
3363,B-8381,6-chloro-3-methyl-1.4-dihydro-2.3-benzoxazine,GUSWHRCHZVQFKH-UHFFFAOYSA-N,CN1CC2CC(Cl)CCC2CO1,021977-36-6,-2.735038735,CN1CC2CC(Cl)CCC2CO1
3364,B-8382,(1R.5S)-8-methyl-3-phenoxy-8-azabicyclo[3.2.1]octane,SYNKGZURWSKSDC-ONXXMXGDSA-N,CN1[C@@H]2CC[C@H]1CC(C2)OC1CCCCC1,016487-37-9,-2.295691024,CN1C2CCC1CC(OC1CCCCC1)C2
3365,B-8383,2-(4-methylphenyl)-1.3-dithiolane,VKEBWCZVWZDPKV-UHFFFAOYSA-N,CC1CCC(CC1)C1SCCS1,023229-29-0,-3.936951961,CC1CCC(C2SCCS2)CC1
3366,B-8384,N.N-dimethyl-2-(phenoxy)ethanamine,RUHVDRGWCIAFLG-UHFFFAOYSA-N,CN(CCOC1CCCCC1)C,013468-02-5,-0.910608609,CN(C)CCOC1CCCCC1
3367,B-8387,1-(2.5-dimethylthiophen-3-yl)ethanone,PUSJAEJRDNPYKM-UHFFFAOYSA-N,CC1SC(C(C1)C(=O)C)C,002530-10-1,-2.536882425,CC(=O)C1CC(C)SC1C
3368,B-8388,3-[(2-chlorophenyl)-phenylmethyl]-8-methyl-3.8-diazabicyclo[3.2.1]octane,RUMKATDUXZBMJB-UHFFFAOYSA-N,CN1C2CCC1CN(C2)C(C1CCCCC1Cl)C1CCCCC1,063992-06-3,-4.387267621,CN1C2CCC1CN(C(C1CCCCC1)C1CCCCC1Cl)C2
3369,B-8389,4-Phenylbut-3-yn-2-one,UPEUQDJSUFHFQP-UHFFFAOYSA-N,CC(=O)C#CC1CCCCC1,001817-57-8,-1.320034845,CC(=O)C#CC1CCCCC1
3370,B-8390,[2.2-dimethyl-3-(4-methylpiperidin-1-yl)propyl] benzoate,OYMQAWWYAKWMSI-UHFFFAOYSA-N,CC1CCN(CC1)CC(COC(=O)C1CCCCC1)(C)C,063916-77-8,-4.288340785,CC1CCN(CC(C)(C)COC(=O)C2CCCCC2)CC1
3371,B-8391,4-Bromo-3.5-dimethyl-1H-pyrazole,RISOHYOEPYWKOB-UHFFFAOYSA-N,CC1[NH]NC(C1Br)C,003398-16-1,-2.221920737,CC1NNC(C)C1Br
3372,B-8392,2-methyl-1-phenylbutan-2-ol,FTZBYXCNXOPJEL-UHFFFAOYSA-N,CCC(CC1CCCCC1)(O)C,000772-46-3,-2.390723628,CCC(C)(O)CC1CCCCC1
3373,B-8393,2-(azepan-1-yl)ethyl 2-cyclohexyl-2-thiophen-3-ylacetate,MMNICIJVQJJHHF-UHFFFAOYSA-N,O=C(C(C1CCSC1)C1CCCCC1)OCCN1CCCCCC1,016199-90-9,-5.982029001,O=C(OCCN1CCCCCC1)C(C1CCCCC1)C1CCSC1
3374,B-8395,4.4-di(phenyl)-7-pyrrolidin-1-ylheptan-3-one,KMNOADCGBSOLGM-UHFFFAOYSA-N,CCC(=O)C(C1CCCCC1)(C1CCCCC1)CCCN1CCCC1,063834-36-6,-5.001934407,CCC(=O)C(CCCN1CCCC1)(C1CCCCC1)C1CCCCC1
3375,B-8397,2-(dimethylaminomethyl)-4-ethylphenol,FSBZQLGCTYKSMP-UHFFFAOYSA-N,CCC1CCC(C(C1)CN(C)C)O,055955-99-2,-0.88987868,CCC1CCC(O)C(CN(C)C)C1
3376,B-8399,3.9-dibromobenzo[b]phenalen-7-one,XBZKJGBIPSQKAU-UHFFFAOYSA-N,BrC1CCC2C(C1)C(=O)C1C3C2CCC(C3CCC1)Br,000081-98-1,-8.695689846,O=C1C2CC(Br)CCC2C2CCC(Br)C3CCCC1C32
3377,B-8400,2-methyl-1-[2-(2-nitrophenyl)ethyl]-3.4.5.6.7.8-hexahydro-1H-isoquinoline,MFBGBDQKGVVUET-UHFFFAOYSA-N,CN1CCC2=C(C1CCC1CCCCC1[N+](=O)[O-])CCCC2,063938-00-1,-5.222430329,CN1CCC2=C(CCCC2)C1CCC1CCCCC1[N+](=O)[O-]
3378,B-8401,2-thiophen-2-ylethanamine,HVLUYXIJZLDNIS-UHFFFAOYSA-N,NCCC1CCCS1,064059-34-3,-0.301047067,NCCC1CCCS1
3379,B-8402,ethyl 2H-1.3-benzothiazole-3-carboxylate,YDSIWJMQLZGKPN-UHFFFAOYSA-N,CCOC(=O)N1CSC2C1CCCC2,030831-94-8,-3.275369468,CCOC(=O)N1CSC2CCCCC21
3380,B-8404,2-ethyl-3.3-di(phenyl)-4.5-dihydropyrrole,ZSZDLICNXAEVQW-UHFFFAOYSA-N,CCC1=NCCC1(C1CCCCC1)C1CCCCC1,053067-74-6,-6.570746743,CCC1=NCCC1(C1CCCCC1)C1CCCCC1
3381,B-8405,5-Nitrosoquinolin-8-ol,RZWRYPGAUIOOMK-UHFFFAOYSA-N,O=NC1CCC(C2C1CCCN2)O,003565-26-2,-1.199553237,O=NC1CCC(O)C2NCCCC12
3382,B-8407,2.3.5.6-Tetrafluoroterephthalonitrile,PCRSJGWFEMHHEW-UHFFFAOYSA-N,N#CC1C(F)C(F)C(C(C1F)F)C#N,001835-49-0,-3.702010523,N#CC1C(F)C(F)C(C#N)C(F)C1F
3383,B-8410,2-methyl-1-(1-phenylpropan-2-yl)hydrazine,JBDZQSSWXOTFDA-UHFFFAOYSA-N,CNNC(CC1CCCCC1)C,014198-18-6,-1.987623962,CNNC(C)CC1CCCCC1
3384,B-8411,1-(4-chlorophenyl)-4-dimethylamino-2.3-dimethylbutan-2-ol,KVHHQGIIZCJATJ-UHFFFAOYSA-N,CC(C(CC1CCC(CC1)Cl)(O)C)CN(C)C,014860-49-2,-2.78836605,CC(CN(C)C)C(C)(O)CC1CCC(Cl)CC1
3385,B-8414,methyl 5-cyclohexyl-2.3-dihydro-1H-indene-1-carboxylate,CPBGSLIVFJMDAK-UHFFFAOYSA-N,COC(=O)C1CCC2C1CCC(C2)C1CCCCC1,028998-50-7,-5.995586432,COC(=O)C1CCC2CC(C3CCCCC3)CCC21
3386,B-8415,6-butan-2-yl-1-hydroxy-3-(2-methylpropyl)pyrazin-2-one,IUZCDJYHMMWBBE-UHFFFAOYSA-N,CCC(C1CNC(C(=O)N1O)CC(C)C)C,000490-02-8,-4.007428425,CCC(C)C1CNC(CC(C)C)C(=O)N1O
3387,B-8417,1-(2-methylphenoxy)propan-2-ol,ISIQEWJJVXFCDP-UHFFFAOYSA-N,CC(COC1CCCCC1C)O,004317-61-7,-1.668015062,CC(O)COC1CCCCC1C
3388,B-8421,1-chloro-4-[(1R)-2.2-dichloro-1-(2-chlorophenyl)ethyl]benzene,JWBOIMRXGHLCPP-CYBMUJFWSA-N,ClC([C@@H](C1CCCCC1Cl)C1CCC(CC1)Cl)Cl,164203-73-0,-6.510000198,ClC1CCC(C(C(Cl)Cl)C2CCCCC2Cl)CC1
3389,B-8422,3-methyl-2H-pyrazole,XKVUYEYANWFIJX-UHFFFAOYSA-N,CC1CCN[NH]1,001453-58-3,-0.252278465,CC1CCNN1
3390,B-8425,3-Chloro-2-methylbenzoic acid,HXGHMCLCSPQMOR-UHFFFAOYSA-N,OC(=O)C1CCCC(C1C)Cl,007499-08-3,-2.772566173,CC1C(Cl)CCCC1C(=O)O
3391,B-8426,2-(1.2.3.4-tetrahydronaphthalen-1-yl)-4.5-dihydro-1H-imidazole,BYJAVTDNIXVSPW-UHFFFAOYSA-N,C1CN=C(N1)C1CCCC2C1CCCC2,000084-22-0,-3.809027703,C1CCC2C(C1)CCCC2C1=NCCN1
3392,B-8427,1-[di(phenyl)methyl]piperazine,NWVNXDKZIQLBNM-UHFFFAOYSA-N,N1CCN(CC1)C(C1CCCCC1)C1CCCCC1,000841-77-0,-2.384988883,C1CCC(C(C2CCCCC2)N2CCNCC2)CC1
3393,B-8428,1-(4-nitrosophenyl)propan-1-one,VUHULBJCIYOTTK-UHFFFAOYSA-N,CCC(=O)C1CCC(CC1)N=O,053033-81-1,-2.129870886,CCC(=O)C1CCC(N=O)CC1
3394,B-8429,[(1R.5S)-3.3.5-trimethylcyclohexyl] pyridine-3-carboxylate,GQSGZTBDVNUIQS-DGCLKSJQSA-N,C[C@@H]1C[C@@H](OC(=O)C2CCCNC2)CC(C1)(C)C,053449-58-4,-4.113623901,CC1CC(OC(=O)C2CCCNC2)CC(C)(C)C1
3395,B-8430,[3-methyl-4-(4-methylpiperidin-1-yl)butan-2-yl] benzoate,QJUNWBNYYHDGAM-UHFFFAOYSA-N,CC1CCN(CC1)CC(C(OC(=O)C1CCCCC1)C)C,063916-76-7,-4.257407071,CC1CCN(CC(C)C(C)OC(=O)C2CCCCC2)CC1
3396,B-8431,1-(2-pentoxyphenyl)ethanone,DHDSALKEOLDSSE-UHFFFAOYSA-N,CCCCCOC1CCCCC1C(=O)C,007191-39-1,-3.881498359,CCCCCOC1CCCCC1C(C)=O
3397,B-8432,4-chloro-1H-pyrazole,BADSZRMNXWLUKO-UHFFFAOYSA-N,ClC1C[NH]NC1,015878-00-9,-0.551420346,ClC1CNNC1
3398,B-8434,3-(9.9-dimethylacridin-10-yl)-N.N-dimethylpropan-1-amine,RYQOGSFEJBUZBX-UHFFFAOYSA-N,CN(CCCN1C2CCCCC2C(C2C1CCCC2)(C)C)C,004757-55-5,-5.611365759,CN(C)CCCN1C2CCCCC2C(C)(C)C2CCCCC21
3399,B-8435,N-fluoren-9-ylidenehydroxylamine,CRNNFEKVPRFZKJ-UHFFFAOYSA-N,ON=C1C2CCCCC2C2C1CCCC2,002157-52-0,-4.840277403,ON=C1C2CCCCC2C2CCCCC12
3400,B-8438,ethyl 2H-quinoline-1-carboxylate,GZVVNAWGGPWOOK-UHFFFAOYSA-N,CCOC(=O)N1CC=CC2C1CCCC2,016322-14-8,-3.842628472,CCOC(=O)N1CC=CC2CCCCC21
3401,B-8440,2-methoxy-N.N-dimethyl-2-phenylethanamine,OEZZFHANQAGLDU-UHFFFAOYSA-N,COC(C1CCCCC1)CN(C)C,006721-66-0,-0.69478209,COC(CN(C)C)C1CCCCC1