,C_ID,Name,InChIKey,SMILES,CAS,LogS,smiles_canon
4856,B-10347,5-butyl-6-methyl-2-sulfanylidene-1H-pyrimidin-4-one,CTHUKFGHEPDDJE-UHFFFAOYSA-N,CCCCC1C(C)[NH]C(=S)[NH]C1=O,029113-41-5,-2.366848077,CCCCC1C(=O)NC(=S)NC1C
4857,B-10348,ethyl 3-oxobenzo[f]chromene-2-carboxylate,FYOZSKRVTISLHE-UHFFFAOYSA-N,CCOC(=O)C1CC2C(OC1=O)CCC1C2CCCC1,000734-88-3,-3.528201759,CCOC(=O)C1CC2C(CCC3CCCCC32)OC1=O
4858,B-10349,(3E)-3-(3-hydroxy-5-oxo-4-phenylfuran-2-ylidene)-1-benzofuran-2-one,CGRCGRBHNKRILW-JQIJEIRASA-N,O=C1O/C(=C\2/C(=O)OC3C2CCCC3)/C(=C1C1CCCCC1)O,010091-92-6,-1.765949423,O=C1OC(=C2C(=O)OC3CCCCC23)C(O)=C1C1CCCCC1
4859,B-10351,6.7-dimethoxy-2-methyl-1-[2-(2-nitrophenyl)ethyl]-3.4-dihydro-1H-isoquinoline,GEYZYDGDYWJOGO-UHFFFAOYSA-N,COC1CC2C(CC1OC)CCN(C2CCC1CCCCC1[N+](=O)[O-])C,063937-56-4,-4.629239045,COC1CC2CCN(C)C(CCC3CCCCC3[N+](=O)[O-])C2CC1OC
4860,B-10352,[4-[(4-acetyloxyphenyl)-cyclohexylidenemethyl]phenyl] acetate,GVOUFPWUYJWQSK-UHFFFAOYSA-N,CC(=O)OC1CCC(CC1)C(=C1CCCCC1)C1CCC(CC1)OC(=O)C,002624-43-3,-6.624209658,CC(=O)OC1CCC(C(=C2CCCCC2)C2CCC(OC(C)=O)CC2)CC1
4861,B-10353,5-[2-(4-fluorophenyl)acetyl]-2-hydroxy-3-methylbenzoic acid,RWOCMBGJVOHSLJ-UHFFFAOYSA-N,FC1CCC(CC1)CC(=O)C1CC(C)C(C(C1)C(=O)O)O,050439-08-2,-4.463731805,CC1CC(C(=O)CC2CCC(F)CC2)CC(C(=O)O)C1O
4862,B-10354,3-Ethyl-3-(4-nitrophenyl)piperidine-2.6-dione,ZHPKYOHYUWTINN-UHFFFAOYSA-N,CCC1(CCC(=O)NC1=O)C1CCC(CC1)[N+](=O)[O-],038527-73-0,-2.832153049,CCC1(C2CCC([N+](=O)[O-])CC2)CCC(=O)NC1=O
4863,B-10355,2.4-dichloro-1-[(methyl-sulfamoylamino)methyl]benzene,ZGLVYSGVOOIUBG-UHFFFAOYSA-N,ClC1CCC(C(C1)Cl)CN(S(=O)(=O)N)C,004960-47-8,-2.771966868,CN(CC1CCC(Cl)CC1Cl)S(N)(=O)=O
4864,B-10356,2-(morpholin-4-ylmethyl)-2-phenylindene-1.3-dione,YYRYCTNXXHOENE-UHFFFAOYSA-N,O=C1C2CCCCC2C(=O)C1(CN1CCOCC1)C1CCCCC1,027591-42-0,-2.062032342,O=C1C2CCCCC2C(=O)C1(CN1CCOCC1)C1CCCCC1
4865,B-10357,ethyl 2-(4-oxo-2-phenylchromen-7-yl)oxyacetate,ZVXBAHLOGZCFTP-UHFFFAOYSA-N,CCOC(=O)COC1CCC2C(C1)OC(CC2=O)C1CCCCC1,000119-41-5,-4.709311741,CCOC(=O)COC1CCC2C(=O)CC(C3CCCCC3)OC2C1
4866,B-10358,4-(2-butylamino-1-hydroxyethyl)phenol,RDUHXGIIUDVSHR-UHFFFAOYSA-N,CCCCNCC(C1CCC(CC1)O)O,003703-79-5,-0.284117508,CCCCNCC(O)C1CCC(O)CC1
4867,B-10359,3-Ethoxy-N.N-diethyl-4-hydroxybenzamide,CSGBRIWXMBIKEM-UHFFFAOYSA-N,CCOC1CC(CCC1O)C(=O)N(CC)CC,013898-68-5,-2.251444267,CCOC1CC(C(=O)N(CC)CC)CCC1O
4868,B-10361,4-amino-N-(4.6-dimethylpyridin-2-yl)benzamide,FEWVYFMOKCOJNJ-UHFFFAOYSA-N,NC1CCC(CC1)C(=O)NC1CC(C)CC(N1)C,036845-10-0,-2.881487279,CC1CC(C)NC(NC(=O)C2CCC(N)CC2)C1
4869,B-10364,2-methyl-4-morpholin-4-yl-2-naphthalen-1-ylbutanamide,KQPCUJSGFVRMQT-UHFFFAOYSA-N,NC(=O)C(C1CCCC2C1CCCC2)(CCN1CCOCC1)C,001506-01-0,-3.103793976,CC(CCN1CCOCC1)(C(N)=O)C1CCCC2CCCCC21
4870,B-10366,4-[2.2.2-trichloro-1-(4-hydroxyphenyl)ethyl]phenol,IUGDILGOLSSKNE-UHFFFAOYSA-N,ClC(C(C1CCC(CC1)O)C1CCC(CC1)O)(Cl)Cl,124042-17-7,-4.817919689,OC1CCC(C(C2CCC(O)CC2)C(Cl)(Cl)Cl)CC1
4871,B-10367,(2E)-2-morpholin-4-ylimino-1-(4-nitrophenyl)ethanone,MFYJYJNQWAXDNP-UKTHLTGXSA-N,O=C(C1CCC(CC1)[N+](=O)[O-])/C=N/N1CCOCC1,024342-46-9,-1.663737204,O=C(C=NN1CCOCC1)C1CCC([N+](=O)[O-])CC1
4872,B-10368,3-[1-hydroxy-2-(propan-2-ylamino)ethyl]phenol,LVISWIXSNZQRHA-UHFFFAOYSA-N,CC(NCC(C1CCCC(C1)O)O)C,003571-71-9,0.370247767,CC(C)NCC(O)C1CCCC(O)C1
4873,B-10369,methyl (15S.17S.19S)-15-ethyl-17-hydroxy-1.11-diazapentacyclo[9.6.2.02.7.08.18.015.19]nonadeca-2.4.6.8(18)-tetraene-17-carboxylate,RXPRRQLKFXBCSJ-GIVPXCGWSA-N,COC(=O)[C@@]1(O)C[C@]2(CC)CCCN3[C@@H]2C2N1C1CCCCC1C2CC3,001617-90-9,-4.834220309,CCC12CCCN3CCC4C5CCCCC5N(C4C31)C(O)(C(=O)OC)C2
4874,B-10370,methyl 2-sulfamoylbenzoate,VSOOBQALJVLTBH-UHFFFAOYSA-N,COC(=O)C1CCCCC1S(=O)(=O)N,057683-71-3,-0.779369761,COC(=O)C1CCCCC1S(N)(=O)=O
4875,B-10371,ethyl 6-methyl-2-[2-oxo-2-(2-piperidin-1-ylethoxy)ethoxy]-3-propan-2-ylbenzoate,AABQVBFXZKSBOW-UHFFFAOYSA-N,CCOC(=O)C1C(C)CCC(C1OCC(=O)OCCN1CCCCC1)C(C)C,053206-77-2,-5.318582792,CCOC(=O)C1C(C)CCC(C(C)C)C1OCC(=O)OCCN1CCCCC1
4876,B-10373,N-hydroxypyridine-3-carboxamide,IYCHDNQCHLMLJZ-UHFFFAOYSA-N,ONC(=O)C1CCCNC1,001606-69-5,0.28132846,O=C(NO)C1CCCNC1
4877,B-10374,5-amino-3H-1.3-benzoxazol-2-one,GJXXUHGUCBUXSL-UHFFFAOYSA-N,NC1CCC2C(C1)[NH]C(=O)O2,014733-77-8,-1.631180588,NC1CCC2OC(=O)NC2C1
4878,B-10375,1-[2-[3-[4-(2-chlorophenyl)piperazin-1-yl]-2-hydroxypropoxy]phenyl]ethanone,NIHRMUCHYZKKDX-UHFFFAOYSA-N,OC(CN1CCN(CC1)C1CCCCC1Cl)COC1CCCCC1C(=O)C,063990-66-9,-3.388431885,CC(=O)C1CCCCC1OCC(O)CN1CCN(C2CCCCC2Cl)CC1
4879,B-10376,(1S.17S.18S.19S)-5.7-dioxa-12-azapentacyclo[10.6.1.02.10.04.8.015.19]nonadeca-2.4(8).9.15-tetraene-17.18-diol,XGVJWXAYKUHDOO-DANNLKNASA-N,O[C@H]1C=C2CCN3[C@H]2[C@@H]([C@@H]1O)C1CC2OCOC2CC1C3,000476-28-8,-2.613074174,OC1C=C2CCN3CC4CC5OCOC5CC4C(C1O)C23
4880,B-10380,[4-[bis(2-chloroethyl)amino]phenyl] 2-methylbenzoate,KRRMOOMFGMSJHJ-UHFFFAOYSA-N,ClCCN(C1CCC(CC1)OC(=O)C1CCCCC1C)CCCl,021667-00-5,-6.261299857,CC1CCCCC1C(=O)OC1CCC(N(CCCl)CCCl)CC1
4881,B-10381,spiro[imidazolidine-5.2&apos-tricyclo[9.4.0.03.8]pentadeca-1(15).3.5.7.11.13-hexaene]-2.4-dione,BPBYGUGIURNKEG-UHFFFAOYSA-N,O=C1NC(=O)C2(N1)C1CCCCC1CCC1C2CCCC1,064036-58-4,-5.024574623,O=C1NC(=O)C2(N1)C1CCCCC1CCC1CCCCC12
4882,B-10382,4-hydroxy-3-(3-methylbut-2-enyl)naphthalene-1.2-dione,CWPGNVFCJOPXFB-UHFFFAOYSA-N,CC(=CCC1=C(O)C2C(C(=O)C1=O)CCCC2)C,000084-79-7,-4.124235422,CC(C)=CCC1=C(O)C2CCCCC2C(=O)C1=O
4883,B-10383,1-(diaminomethylidene)-2-phenylguanidine,CUQCMXFWIMOWRP-UHFFFAOYSA-N,N/C(=N\C1CCCCC1)/N=C(N)N,000102-02-3,-1.432979339,NC(N)=NC(N)=NC1CCCCC1
4884,B-10384,2-(2-pyridin-2-yl-1.3-benzothiazol-5-yl)acetic acid,BJYONXICRMQIJO-UHFFFAOYSA-N,OC(=O)CC1CCC2C(C1)NC(S2)C1CCCCN1,049701-98-6,-2.638764086,O=C(O)CC1CCC2SC(C3CCCCN3)NC2C1
4885,B-10385,N-(4-hydroxyphenyl)prop-2-enamide,POVITWJTUUJBNK-UHFFFAOYSA-N,C=CC(=O)NC1CCC(CC1)O,034443-04-4,-0.924854526,C=CC(=O)NC1CCC(O)CC1
4886,B-10386,2.2-dioxo-1H-benzo[d]thiazin-4-one,UYXCSOAMZMOWRY-UHFFFAOYSA-N,O=C1NS(=O)(=O)CC2C1CCCC2,021784-53-2,-1.249601528,O=C1NS(=O)(=O)CC2CCCCC12
4887,B-10387,[4-[bis(2-chloroethyl)amino]phenyl] benzoate,DCKXNKRUGUYEPS-UHFFFAOYSA-N,ClCCN(C1CCC(CC1)OC(=O)C1CCCCC1)CCCl,001233-89-2,-5.690990336,O=C(OC1CCC(N(CCCl)CCCl)CC1)C1CCCCC1
4888,B-10388,methyl 1-(2-phenylethyl)-4-(phenyl-propanoylamino)piperidine-4-carboxylate,YDSDEBIZUNNPOB-UHFFFAOYSA-N,CCC(=O)N(C1(CCN(CC1)CCC1CCCCC1)C(=O)OC)C1CCCCC1,060645-15-0,-4.971781436,CCC(=O)N(C1CCCCC1)C1(C(=O)OC)CCN(CCC2CCCCC2)CC1
4889,B-10389,3-ethyl-4-(4-methoxyphenyl)-2-methylcyclohex-3-ene-1-carboxylic acid,VJKVHUZOVAWKEB-UHFFFAOYSA-N,CCC1=C(CCC(C1C)C(=O)O)C1CCC(CC1)OC,001755-52-8,-5.454243744,CCC1=C(C2CCC(OC)CC2)CCC(C(=O)O)C1C
4890,B-10390,8-cyclopropyl-1.3-dimethyl-7H-purine-2.6-dione,SZMWFUBOZRDQPO-UHFFFAOYSA-N,CN1C2NC([NH]C2C(=O)N(C1=O)C)C1CC1,035873-47-3,-1.621069788,CN1C(=O)C2NC(C3CC3)NC2N(C)C1=O
4891,B-10391,3-Amino-N-phenylbenzamide,KPSPULPPMWHXGE-UHFFFAOYSA-N,NC1CCCC(C1)C(=O)NC1CCCCC1,014315-16-3,-2.26994694,NC1CCCC(C(=O)NC2CCCCC2)C1
4892,B-10392,2-methoxyacridin-9-amine,MPQHRPVQJUEINF-UHFFFAOYSA-N,COC1CCC2C(C1)C(N)C1C(N2)CCCC1,003407-99-6,-4.067456399,COC1CCC2NC3CCCCC3C(N)C2C1
4893,B-10393,3-[(4-ethoxyphenyl)methoxy]propane-1.2-diol,NTOIBZJBOAYNRO-UHFFFAOYSA-N,CCOC1CCC(CC1)COCC(CO)O,063834-82-2,-1.818072373,CCOC1CCC(COCC(O)CO)CC1
4894,B-10394,3-chloro-2-(2-chloro-4-methylphenyl)oxirane-2-carboxamide,RUCYUEOPKJWVRX-UHFFFAOYSA-N,CC1CCC(C(C1)Cl)C1(OC1Cl)C(=O)N,023474-38-6,-3.05865023,CC1CCC(C2(C(N)=O)OC2Cl)C(Cl)C1
4895,B-10395,(1S)-1-(4-chlorophenoxy)-3.3-dimethyl-1-(1.2.4-triazol-1-yl)butan-2-one,WURBVZBTWMNKQT-ZDUSSCGKSA-N,O=C(C(C)(C)C)[C@@H](N1NCNC1)OC1CCC(CC1)Cl,089497-67-6,-3.6099999,CC(C)(C)C(=O)C(OC1CCC(Cl)CC1)N1CNCN1
4896,B-10397,propan-2-yl 6-methyl-2-[2-oxo-2-(2-piperidin-1-ylethoxy)ethoxy]-3-propan-2-ylbenzoate,MKXWZVYEVYAFOZ-UHFFFAOYSA-N,O=C(COC1C(CCC(C1C(=O)OC(C)C)C)C(C)C)OCCN1CCCCC1,053206-78-3,-5.776798648,CC(C)OC(=O)C1C(C)CCC(C(C)C)C1OCC(=O)OCCN1CCCCC1
4897,B-10398,methyl 2-[2-(2-dimethylaminoethylamino)-2-oxoethoxy]-6-methyl-3-propan-2-ylbenzoate,PDOLRXVBUWVQQX-UHFFFAOYSA-N,COC(=O)C1C(C)CCC(C1OCC(=O)NCCN(C)C)C(C)C,053206-90-9,-3.846561797,COC(=O)C1C(C)CCC(C(C)C)C1OCC(=O)NCCN(C)C
4898,B-10399,[4-(bis(2-bromoethyl)amino)phenyl] 3-methoxybenzoate,GWQUZVAKPOUIRG-UHFFFAOYSA-N,BrCCN(C1CCC(CC1)OC(=O)C1CCCC(C1)OC)CCBr,022954-19-4,-6.778685457,COC1CCCC(C(=O)OC2CCC(N(CCBr)CCBr)CC2)C1
4899,B-10400,2-(3-methyl-2-nitroimidazol-4-yl)ethanol,MMKOENPMBPNDHX-UHFFFAOYSA-N,[O-][N+](=O)C1NCC(N1C)CCO,023571-48-4,-0.837192807,CN1C(CCO)CNC1[N+](=O)[O-]
4900,B-10402,methyl 4-[5-(4-methoxy-3.3-dimethyl-4-oxobutyl)-[1.3]thiazolo[5.4-d][1.3]thiazol-2-yl]-2.2-dimethylbutanoate,GEXJJXJFZFVTFV-UHFFFAOYSA-N,COC(=O)C(CCC1NC2C(S1)NC(S2)CCC(C(=O)OC)(C)C)(C)C,033311-50-1,-6.41862398,COC(=O)C(C)(C)CCC1NC2SC(CCC(C)(C)C(=O)OC)NC2S1
4901,B-10403,3-(2-diethylaminoethoxy)propyl 4-aminobenzoate,PZABEXWNZYLYEY-UHFFFAOYSA-N,CCN(CCOCCCOC(=O)C1CCC(CC1)N)CC,063917-76-0,-2.220957149,CCN(CC)CCOCCCOC(=O)C1CCC(N)CC1
4902,B-10405,8-chloro-10-(3-dimethylaminopropyl)-3-methoxyphenothiazin-2-ol,BUYJXXRXCHMFDZ-UHFFFAOYSA-N,COC1CC2SC3CCC(CC3N(C2CC1O)CCCN(C)C)Cl,021658-48-0,-5.847829821,COC1CC2SC3CCC(Cl)CC3N(CCCN(C)C)C2CC1O
4903,B-10406,N-hydroxy-2-[4-(2-methylpropyl)phenyl]acetamide,KXWBJMRKTBNVNY-UHFFFAOYSA-N,ONC(=O)CC1CCC(CC1)CC(C)C,003347-48-6,-2.703758856,CC(C)CC1CCC(CC(=O)NO)CC1
4904,B-10407,6-butylaminoquinoline-5.8-dione,IUQRFVREMWMGPS-UHFFFAOYSA-N,CCCCNC1=CC(=O)C2C(C1=O)CCCN2,035976-60-4,-1.374118863,CCCCNC1=CC(=O)C2NCCCC2C1=O
4905,B-10408,N-(5-tert-butyl-1.3.4-thiadiazol-2-yl)benzenesulfonamide,NMWQEPCLNXHPDX-UHFFFAOYSA-N,CC(C1NNC(S1)NS(=O)(=O)C1CCCCC1)(C)C,001492-02-0,-4.094203661,CC(C)(C)C1NNC(NS(=O)(=O)C2CCCCC2)S1
4906,B-10409,N.N-dimethyl-2-(2-tricyclo[9.4.0.03.8]pentadeca-1(15).3.5.7.11.13-hexaenyloxy)acetamide,VBEZUCAXMREMFB-UHFFFAOYSA-N,O=C(N(C)C)COC1C2CCCCC2CCC2C1CCCC2,029541-85-3,-5.505653091,CN(C)C(=O)COC1C2CCCCC2CCC2CCCCC21
4907,B-10410,2-(2-piperidin-1-ylethoxy)ethyl pyrido[3.2-b][1.4]benzothiazine-10-carboxylate,DTVJXCOMJLLMAK-UHFFFAOYSA-N,O=C(N1C2CCCCC2SC2C1NCCC2)OCCOCCN1CCCCC1,002167-85-3,-6.429800113,O=C(OCCOCCN1CCCCC1)N1C2CCCCC2SC2CCCNC21
4908,B-10411,2-Diethylaminoethyl 4-amino-2-propoxybenzoate,CAJIGINSTLKQMM-UHFFFAOYSA-N,CCCOC1CC(N)CCC1C(=O)OCCN(CC)CC,000086-43-1,-2.942591138,CCCOC1CC(N)CCC1C(=O)OCCN(CC)CC
4909,B-10412,6-methyl-3-morpholin-4-yl-1H-pyridazin-4-one,NPDBEUDAYBQLHV-UHFFFAOYSA-N,CC1[NH]NC(C(=O)C1)N1CCOCC1,022390-46-1,-1.183318788,CC1CC(=O)C(N2CCOCC2)NN1
4910,B-10413,3-(2.4.6-Trichlorophenoxy)propane-1.2-diol,UEYYGXZIKYKIMT-UHFFFAOYSA-N,OCC(COC1C(Cl)CC(CC1Cl)Cl)O,005112-23-2,-3.56574228,OCC(O)COC1C(Cl)CC(Cl)CC1Cl
4911,B-10414,N-(1-hydroxy-1-phenylpropan-2-yl)-N-methylacetamide,ZZGMTCKULVMTDB-UHFFFAOYSA-N,OC(C(N(C(=O)C)C)C)C1CCCCC1,016413-75-5,-1.219632699,CC(=O)N(C)C(C)C(O)C1CCCCC1
4912,B-10415,3-[4-[3.3-di(phenyl)propyl]piperazin-1-yl]pyridazine,JJJJNMZRKHIJBC-UHFFFAOYSA-N,C1CCC(CC1)C(C1CCCCC1)CCN1CCN(CC1)C1CCCNN1,036371-39-8,-4.537442507,C1CCC(C(CCN2CCN(C3CCCNN3)CC2)C2CCCCC2)CC1
4913,B-10416,N-(2-hydroxyethyl)-2-prop-2-enoxybenzamide,PPLORUTUJXLHEI-UHFFFAOYSA-N,OCCNC(=O)C1CCCCC1OCC=C,063887-17-2,-1.803315813,C=CCOC1CCCCC1C(=O)NCCO
4914,B-10418,(13aR)-2.3.5.6-tetramethoxy-9.11.12.13.13a.14-hexahydrophenanthro[9.10-f]indolizine,YFEPHJVWLFGWKH-CQSZACIVSA-N,COC1CC2C(CC1OC)C1C[C@H]3CCCN3CC1C1C2C(OC)C(OC)CC1,006879-02-3,-5.719691027,COC1CC2C3CC4CCCN4CC3C3CCC(OC)C(OC)C3C2CC1OC
4915,B-10420,10-(3-aminopropyl)-8-chlorophenothiazin-3-ol,YTCSKUDULFDUDD-UHFFFAOYSA-N,NCCCN1C2CCC(CC2SC2C1CC(Cl)CC2)O,014339-64-1,-5.659497421,NCCCN1C2CCC(O)CC2SC2CCC(Cl)CC21
4916,B-10421,2.2-dioxo-3-prop-2-ynyl-1H-benzo[d]thiazin-4-one,PCUVRILJYXQWBX-UHFFFAOYSA-N,C#CCN1C(=O)C2CCCCC2CS1(=O)=O,031846-49-8,-1.885821128,C#CCN1C(=O)C2CCCCC2CS1(=O)=O
4917,B-10424,[4-[bis(2-chloroethyl)amino]phenyl] 2.6-dimethylbenzoate,TZLVOSZIPXICJI-UHFFFAOYSA-N,ClCCN(C1CCC(CC1)OC(=O)C1C(C)CCCC1C)CCCl,021667-01-6,-6.829816298,CC1CCCC(C)C1C(=O)OC1CCC(N(CCCl)CCCl)CC1
4918,B-10426,3-methylpurin-6-amine,FSASIHFSFGAIJM-UHFFFAOYSA-N,NC1NCN(C2C1NCN2)C,005142-23-4,-0.480972941,CN1CNC(N)C2NCNC21
4919,B-10428,1-(4.5-dihydro-1H-imidazol-2-ylmethyl)-4.5-dihydro-3H-1-benzazepin-2-one,QJNSVIYGOVNUCN-UHFFFAOYSA-N,O=C1CCCC2C(N1CC1=NCCN1)CCCC2,054951-26-7,-2.352736203,O=C1CCCC2CCCCC2N1CC1=NCCN1
4920,B-10429,4-nitro-N-pyridin-3-ylbenzamide,DRCKREXMVGWWIE-UHFFFAOYSA-N,O=C(C1CCC(CC1)[N+](=O)[O-])NC1CCCNC1,013313-18-3,-2.97776289,O=C(NC1CCCNC1)C1CCC([N+](=O)[O-])CC1
4921,B-10430,[(E)-7-azatricyclo[9.4.0.03.8]pentadeca-1(15).3(8).4.6.11.13-hexaen-2-ylideneamino] N-methylcarbamate,FOMASEJNMWIVAC-XDJHFCHBSA-N,CNC(=O)O/N=C/1\C2CCCCC2CCC2C1CCCN2,031719-68-3,-4.869409293,CNC(=O)ON=C1C2CCCCC2CCC2NCCCC12
4922,B-10431,[3-hydroxy-2.2-di(phenyl)propyl] N-ethylcarbamate,BAMSHZXIILXXOZ-UHFFFAOYSA-N,OCC(C1CCCCC1)(C1CCCCC1)COC(=O)NCC,025384-57-0,-3.7342692,CCNC(=O)OCC(CO)(C1CCCCC1)C1CCCCC1
4923,B-10432,2-(4-chlorophenyl)-5-[1-(2H-tetrazol-5-yl)ethyl]-1.3-benzoxazole,HWYDUXWJTPHYRD-UHFFFAOYSA-N,ClC1CCC(CC1)C1NC2C(O1)CCC(C2)C(C1N[NH]NN1)C,054785-35-2,-8.143676616,CC(C1CCC2OC(C3CCC(Cl)CC3)NC2C1)C1NNNN1
4924,B-10433,2-[2.3-dichloro-4-(thiophen-2-ylmethyl)phenoxy]acetic acid,CAANODYIPBBLNZ-UHFFFAOYSA-N,OC(=O)COC1CCC(C(C1Cl)Cl)CC1CCCS1,055901-79-6,-5.124728824,O=C(O)COC1CCC(CC2CCCS2)C(Cl)C1Cl
4925,B-10435,1-(2-Chloroethyl)-5-methyl-2-nitroimidazole,UKOJVGHJIMUQHH-UHFFFAOYSA-N,ClCCN1C(C)CNC1[N+](=O)[O-],023571-42-8,-2.439616821,CC1CNC([N+](=O)[O-])N1CCCl
4926,B-10436,ethyl 2-(2-diethylaminoethylcarbamoyl)-2-phenylbutanoate,RMQKPRRJSKFBRU-UHFFFAOYSA-N,CCOC(=O)C(C1CCCCC1)(C(=O)NCCN(CC)CC)CC,004551-59-1,-3.854005531,CCOC(=O)C(CC)(C(=O)NCCN(CC)CC)C1CCCCC1
4927,B-10439,(E)-N-(1-hydroxy-2-methylpropan-2-yl)-3-phenylprop-2-enamide,HLNXBLMILSOABY-CMDGGOBGSA-N,OCC(NC(=O)/C=C/C1CCCCC1)(C)C,030687-08-2,-1.812090244,CC(C)(CO)NC(=O)C=CC1CCCCC1
4928,B-10440,1-ACETYLINDOLE-2.3-DIONE,LPGDEHBASRKTDG-UHFFFAOYSA-N,O=C1C2CCCCC2N(C1=O)C(=O)C,000574-17-4,-1.917016782,CC(=O)N1C(=O)C(=O)C2CCCCC21
4929,B-10441,4-amino-N-methyl-N-(3-methylpyridin-2-yl)benzamide,GASFPZMOLAWCDO-UHFFFAOYSA-N,NC1CCC(CC1)C(=O)N(C1NCCCC1C)C,036844-96-9,-2.884235987,CC1CCCNC1N(C)C(=O)C1CCC(N)CC1
4930,B-10443,2-[2-(3.5-dichlorophenyl)-1.3-benzoxazol-5-yl]propanoic acid,WQDLJCDVQLHYOK-UHFFFAOYSA-N,OC(=O)C(C1CCC2C(C1)NC(O2)C1CC(Cl)CC(C1)Cl)C,051234-76-5,-5.206410084,CC(C(=O)O)C1CCC2OC(C3CC(Cl)CC(Cl)C3)NC2C1
4931,B-10445,2-ethyl-3-[[4-(2-piperidin-1-ylethoxy)phenyl]amino]-3H-isoindol-1-one,ITIONVBQFUNVJV-UHFFFAOYSA-N,CCN1C(=O)C2C(C1NC1CCC(CC1)OCCN1CCCCC1)CCCC2,021590-92-1,-3.859222531,CCN1C(=O)C2CCCCC2C1NC1CCC(OCCN2CCCCC2)CC1
4932,B-10446,3-amino-6.9-dimethylpyrido[2.3-b][1.5]benzoxazepin-5-one,MUKSMBAVCDPKRC-UHFFFAOYSA-N,CC1CCC2C(C1)OC1NCC(CC1C(=O)N2C)N,134894-45-4,-3.04,CC1CCC2C(C1)OC1NCC(N)CC1C(=O)N2C
4933,B-10447,3.4-dihydro-2H-quinolin-1-yl-(3.4.5-trimethoxyphenyl)methanone,ZNRUHYACSYSCBU-UHFFFAOYSA-N,COC1CC(CC(C1OC)OC)C(=O)N1CCCC2C1CCCC2,034952-16-4,-4.118852797,COC1CC(C(=O)N2CCCC3CCCCC32)CC(OC)C1OC
4934,B-10448,5-iodo-1.6-dimethyl-3-phenylpyrimidine-2.4-dione,DVVILHAVIZXVQQ-UHFFFAOYSA-N,CC1N(C)C(=O)N(C(=O)C1I)C1CCCCC1,032000-67-2,-2.640992008,CC1C(I)C(=O)N(C2CCCCC2)C(=O)N1C
4935,B-10449,1-methyl-2-nitro-5-[(E)-2-nitrohex-1-enyl]imidazole,VNDAPXAHSWGLCJ-SOFGYWHQSA-N,[O-][N+](=O)/C(=C/C1CNC(N1C)[N+](=O)[O-])/CCCC,067292-89-1,-3.493032072,CCCCC(=CC1CNC([N+](=O)[O-])N1C)[N+](=O)[O-]
4936,B-10450,methyl 2-[2-(2-dimethylaminoethoxy)-2-oxoethoxy]-6-methyl-3-propan-2-ylbenzoate,IBHICZHJJGSIKX-UHFFFAOYSA-N,COC(=O)C1C(C)CCC(C1OCC(=O)OCCN(C)C)C(C)C,052073-09-3,-3.343474229,COC(=O)C1C(C)CCC(C(C)C)C1OCC(=O)OCCN(C)C
4937,B-10451,spiro[imidazolidine-5.2&apos-tricyclo[10.4.0.03.8]hexadeca-1(16).3.5.7.12.14-hexaene]-2.4-dione,XURNBUIOYGQEST-UHFFFAOYSA-N,O=C1NC(=O)C2(N1)C1CCCCC1CCCC1C2CCCC1,001037-85-0,-5.546284263,O=C1NC(=O)C2(N1)C1CCCCC1CCCC1CCCCC12
4938,B-10452,[4-[bis(2-chloroethyl)amino]phenyl] 4-methoxybenzoate,HYSSJKYEXPISGA-UHFFFAOYSA-N,ClCCN(C1CCC(CC1)OC(=O)C1CCC(CC1)OC)CCCl,022953-57-7,-5.978436508,COC1CCC(C(=O)OC2CCC(N(CCCl)CCCl)CC2)CC1
4939,B-10456,1-(7-nitro-1.4-dihydro-2.3-benzoxazin-3-yl)propan-1-one,PMMVHZSWDJDSQU-UHFFFAOYSA-N,CCC(=O)N1OCC2C(C1)CCC(C2)[N+](=O)[O-],021038-11-9,-2.774539046,CCC(=O)N1CC2CCC([N+](=O)[O-])CC2CO1
4940,B-10457,2-[bis(2-methylpropyl)amino]-N-[(Z)-(5-nitrofuran-2-yl)methylideneamino]acetamide,OWMJKFSJIQIFBC-APSNUPSMSA-N,CC(CN(CC(=O)N/N=C\C1CCC(O1)[N+](=O)[O-])CC(C)C)C,032224-73-0,-4.068575653,CC(C)CN(CC(=O)NN=CC1CCC([N+](=O)[O-])O1)CC(C)C
4941,B-10459,2-(5-ethyl-2-nitroimidazol-1-yl)ethanol,ABGJIKXMJUSARA-UHFFFAOYSA-N,OCCN1C(CC)CNC1[N+](=O)[O-],023571-39-3,-1.359116097,CCC1CNC([N+](=O)[O-])N1CCO
4942,B-10463,N-(4.5-dimethyl-1.3-oxazol-2-yl)acetamide,NTJJPDBWQWPWKN-UHFFFAOYSA-N,CC(=O)NC1OC(C(N1)C)C,035629-37-9,-1.208448709,CC(=O)NC1NC(C)C(C)O1
4943,B-10464,10-(2-dimethylaminopropyl)-N.N-dimethylphenothiazine-2-sulfonamide,VWNWVCJGUMZDIU-UHFFFAOYSA-N,CC(N(C)C)CN1C2CC(CCC2SC2C1CCCC2)S(=O)(=O)N(C)C,169590-42-5,-5.180828772,CC(CN1C2CCCCC2SC2CCC(S(=O)(=O)N(C)C)CC21)N(C)C
4944,B-10465,2-(2-methyl-5-nitroimidazol-1-yl)acetonitrile,IYTZFCYXBYJPPR-UHFFFAOYSA-N,N#CCN1C(C)NCC1[N+](=O)[O-],001008-49-7,-1.008286602,CC1NCC([N+](=O)[O-])N1CC#N
4945,B-10466,[3-[1-[2-(4-acetyloxyphenyl)ethyl]-3-propylpyrrolidin-3-yl]phenyl] acetate,TUZIOXPOHMWNKY-UHFFFAOYSA-N,CCCC1(CCN(C1)CCC1CCC(CC1)OC(=O)C)C1CCCC(C1)OC(=O)C,027452-90-0,-5.384394775,CCCC1(C2CCCC(OC(C)=O)C2)CCN(CCC2CCC(OC(C)=O)CC2)C1
4946,B-10467,5-(benzoyl)-2.3-dihydro-1H-pyrrolizine-1-carboxylic acid,OZWKMVRBQXNZKK-UHFFFAOYSA-N,OC(=O)C1CCN2C1CCC2C(=O)C1CCCCC1,074103-06-3,-3.259993195,O=C(O)C1CCN2C(C(=O)C3CCCCC3)CCC12
4947,B-10470,6-chloro-2-methoxyacridin-9-amine,IHHSSHCBRVYGJX-UHFFFAOYSA-N,COC1CCC2C(C1)C(N)C1C(N2)CC(CC1)Cl,003548-09-2,-4.867497689,COC1CCC2NC3CC(Cl)CCC3C(N)C2C1
4948,B-10471,1-[4-(3-hydroxyphenyl)-1-methylpiperidin-4-yl]ethanone,RNAGZQQIHXIDQH-UHFFFAOYSA-N,CN1CCC(CC1)(C(=O)C)C1CCCC(C1)O,064058-44-2,-1.172035563,CC(=O)C1(C2CCCC(O)C2)CCN(C)CC1
4949,B-10472,2-naphthalen-1-yl-4-piperidin-1-yl-2-(2-piperidin-1-ylethyl)butanamide,BEHGHYQVNYVAMD-UHFFFAOYSA-N,NC(=O)C(C1CCCC2C1CCCC2)(CCN1CCCCC1)CCN1CCCCC1,002390-11-6,-6.191935004,NC(=O)C(CCN1CCCCC1)(CCN1CCCCC1)C1CCCC2CCCCC21
4950,B-10473,3-[(4-methoxyphenyl)methoxy]propane-1.2-diol,MFKMOLJNQHPVHC-UHFFFAOYSA-N,OCC(COCC1CCC(CC1)OC)O,013807-95-9,-1.29745369,COC1CCC(COCC(O)CO)CC1
4951,B-10474,[3-[bis(2-chloroethyl)amino]-4-methylphenyl]-morpholin-4-ylmethanone,SWMGZHSQTIHKNA-UHFFFAOYSA-N,ClCCN(C1CC(CCC1C)C(=O)N1CCOCC1)CCCl,021447-39-2,-3.900661581,CC1CCC(C(=O)N2CCOCC2)CC1N(CCCl)CCCl
4952,B-10477,4-[1-(4-aminophenyl)-2.2.2-trichloroethyl]aniline,TYYIOZHLPIBQCJ-UHFFFAOYSA-N,ClC(C(C1CCC(CC1)N)C1CCC(CC1)N)(Cl)Cl,004485-25-0,-4.637035902,NC1CCC(C(C2CCC(N)CC2)C(Cl)(Cl)Cl)CC1
4953,B-10478,ethyl 2-(5-ethyl-2-nitroimidazol-1-yl)acetate,OVKDZRWGBXJOPR-UHFFFAOYSA-N,CCOC(=O)CN1C(CC)CNC1[N+](=O)[O-],023571-54-2,-2.523937643,CCOC(=O)CN1C(CC)CNC1[N+](=O)[O-]
4954,B-10479,2-(2-phenyl-1.3-benzoxazol-5-yl)propanoic acid,KIUPORFCHKEHRJ-UHFFFAOYSA-N,OC(=O)C(C1CCC2C(C1)NC(O2)C1CCCCC1)C,051234-26-5,-3.603498733,CC(C(=O)O)C1CCC2OC(C3CCCCC3)NC2C1
4955,B-10480,4-[(4-hydroxyphenyl)amino]phenol,YRUPBAWWCPVHFT-UHFFFAOYSA-N,OC1CCC(CC1)NC1CCC(CC1)O,001752-24-5,-2.060643909,OC1CCC(NC2CCC(O)CC2)CC1
4956,B-10482,11-(2-diethylaminoethyl)-5-hydroxybenzo[b][1.4]benzodiazepin-6-one,PUADUYHPJCGDTM-UHFFFAOYSA-N,CCN(CCN1C2CCCCC2N(C(=O)C2C1CCCC2)O)CC,002137-28-2,-5.242920607,CCN(CC)CCN1C2CCCCC2C(=O)N(O)C2CCCCC21
4957,B-10485,4-amino-8-bromo-1-phenyl-3H-1.5-benzodiazepin-2-one,ZQMKOOCHXJRCFG-UHFFFAOYSA-N,BrC1CCC2C(C1)N(C(=O)CC(=N2)N)C1CCCCC1,036985-34-9,-2.759845447,NC1=NC2CCC(Br)CC2N(C2CCCCC2)C(=O)C1
4958,B-10486,N-(3-dimethylaminopropyl)-N-(2.6-dimethylphenyl)-2-phenylacetamide,UPBRPBXVUIRXRY-UHFFFAOYSA-N,CN(CCCN(C1C(C)CCCC1C)C(=O)CC1CCCCC1)C,018109-58-5,-4.911288786,CC1CCCC(C)C1N(CCCN(C)C)C(=O)CC1CCCCC1
4959,B-10487,2-(phenyl-(quinolin-2-ylmethyl)amino)ethanol,UZSOAEWQSFKJHC-UHFFFAOYSA-N,OCCN(C1CCCCC1)CC1CCC2C(N1)CCCC2,027114-29-0,-3.582467663,OCCN(CC1CCC2CCCCC2N1)C1CCCCC1