,C_ID,Name,InChIKey,SMILES,CAS,LogS,smiles_canon
2836,B-7604,3-[2.2-dimethyl-3-(3-prop-2-enoyloxypropoxy)propoxy]propyl prop-2-enoate,NQGDHQASSFDDLD-UHFFFAOYSA-N,CC(C)(COCCCOC(=O)C=C)COCCCOC(=O)C=C,084170-74-1,-3.049541611,C=CC(=O)OCCCOCC(C)(C)COCCCOC(=O)C=C
2837,B-7605,1-(4-tert-butylphenyl)-3-(4-methoxyphenyl)propane-1.3-diol,GTIRDWBOUTYFQO-UHFFFAOYSA-N,CC(C)(C)C1=CC=C(C=C1)C(CC(C2=CC=C(C=C2)OC)O)O,955359-35-0,-3.837598936,COc1ccc(C(O)CC(O)c2ccc(C(C)(C)C)cc2)cc1
2838,B-7606,(6-hydroxynaphthalen-2-yl)boronic acid,SNJANQMHRGSHFN-UHFFFAOYSA-N,B(C1=CC2=C(C=C1)C=C(C=C2)O)(O)O,173194-95-1,-2.240709375,OB(O)c1ccc2cc(O)ccc2c1
2839,B-7607,1.4-Dioxacycloheptadecane-5.17-dione,XRHCAGNSDHCHFJ-UHFFFAOYSA-N,C1CCCCCC(=O)OCCOC(=O)CCCCC1,000105-95-3,-4.261693573,O=C1CCCCCCCCCCCC(=O)OCCO1
2840,B-7608,2-cyano-3-(3.4-dimethoxyphenyl)propanoic acid,KKZDZTIKRNEPQG-UHFFFAOYSA-N,COC1=C(C=C(C=C1)CC(C#N)C(=O)O)OC,055502-61-9,-1.800968231,COc1ccc(CC(C#N)C(=O)O)cc1OC
2841,B-7609,2-[4-[2-[4-(2-acetyloxyethoxy)phenyl]propan-2-yl]phenoxy]ethyl acetate,HBDPNIKSHRQAJF-UHFFFAOYSA-N,CC(=O)OCCOC1=CC=C(C=C1)C(C)(C)C2=CC=C(C=C2)OCCOC(=O)C,019224-29-4,-8.058502594,CC(=O)OCCOc1ccc(C(C)(C)c2ccc(OCCOC(C)=O)cc2)cc1
2842,B-7610,triethoxy-[3-(3-triethoxysilylpropyldisulfanyl)propyl]silane,FBBATURSCRIBHN-UHFFFAOYSA-N,CCO[Si](CCCSSCCC[Si](OCC)(OCC)OCC)(OCC)OCC,056706-10-6,-5.676527357,CCO[Si](CCCSSCCC[Si](OCC)(OCC)OCC)(OCC)OCC
2843,B-7611,ethyl (3aR.7R.7aR)-2.2-dimethyl-7-methylsulfonyloxy-3a.6.7.7a-tetrahydro-1.3-benzodioxole-5-carboxylate,VSLJKWHERQGBEK-GMTAPVOTSA-N,CCOC(=O)C1=C[C@@H]2[C@H]([C@@H](C1)OS(=O)(=O)C)OC(O2)(C)C,204254-84-2,-3.058475916,CCOC(=O)C1=CC2OC(C)(C)OC2C(OS(C)(=O)=O)C1
2844,B-7612,4-amino-5-methoxy-N.2-dimethylbenzenesulfonamide,GWSQAGVGSHXRJK-UHFFFAOYSA-N,CC1=CC(=C(C=C1S(=O)(=O)NC)OC)N,049564-57-0,-2.576928649,CNS(=O)(=O)c1cc(OC)c(N)cc1C
2845,B-7613,1.3.5-tris(oxiran-2-ylmethyl)-1.3.5-triazinane-2.4.6-trione,OUPZKGBUJRBPGC-UHFFFAOYSA-N,C1C(O1)CN2C(=O)N(C(=O)N(C2=O)CC3CO3)CC4CO4,002451-62-9,-1.518904191,O=c1n(CC2CO2)c(=O)n(CC2CO2)c(=O)n1CC1CO1
2846,B-7614,3-morpholin-4-ylpropane-1-sulfonic acid,DVLFYONBTKHTER-UHFFFAOYSA-N,C1COCCN1CCCS(=O)(=O)O,001132-61-2,0.45579745,O=S(=O)(O)CCCN1CCOCC1
2847,B-7615,N-dimethoxyphosphoryl-1.3-dithiolan-2-imine,CWXVDJFKMQCYFG-UHFFFAOYSA-N,COP(=O)(N=C1SCCS1)OC,052558-73-3,-2.402228319,COP(=O)(N=C1SCCS1)OC
2848,B-7616,2-oxo-N-[6-[(2-oxoazepane-1-carbonyl)amino]hexyl]azepane-1-carboxamide,YOVRNJUIHVNXCB-UHFFFAOYSA-N,C1CCC(=O)N(CC1)C(=O)NCCCCCCNC(=O)N2CCCCCC2=O,005888-87-9,-3.906397354,O=C1CCCCCN1C(=O)NCCCCCCNC(=O)N1CCCCCC1=O
2849,B-7617,N-(cyclohexylideneamino)-2-phenylacetamide,OIGGPHHTUJDJKR-UHFFFAOYSA-N,C1CCC(=NNC(=O)CC2=CC=CC=C2)CC1,000502-69-2,-5.4080684,O=C(Cc1ccccc1)NN=C1CCCCC1
2850,B-7618,3-(oxiran-2-ylmethoxy)-N.N-bis(oxiran-2-ylmethyl)aniline,VAGOJLCWTUPBKD-UHFFFAOYSA-N,C1C(O1)CN(CC2CO2)C3=CC(=CC=C3)OCC4CO4,071604-74-5,-2.19256025,c1cc(OCC2CO2)cc(N(CC2CO2)CC2CO2)c1
2851,B-7619,N-(4-chloro-2.5-dimethoxyphenyl)-3-hydroxynaphthalene-2-carboxamide,QIHKTBRNOLQDGQ-UHFFFAOYSA-N,COC1=CC(=C(C=C1NC(=O)C2=CC3=CC=CC=C3C=C2O)OC)Cl,004273-92-1,-5.062269782,COc1cc(NC(=O)c2cc3ccccc3cc2O)c(OC)cc1Cl
2852,B-7620,2-[1.3-bis(oxiran-2-ylmethoxy)propan-2-yloxymethyl]oxirane,SYEWHONLFGZGLK-UHFFFAOYSA-N,C1C(O1)COCC(COCC2CO2)OCC3CO3,013236-02-7,-0.353998998,C(OCC1CO1)C(COCC1CO1)OCC1CO1
2853,B-7621,2-(4-chloro-2-nitrophenyl)diazenyl-N-(2-methoxyphenyl)-3-oxobutanamide,QPHCXDDGQQLPIM-UHFFFAOYSA-N,CC(=O)C(C(=O)NC1=CC=CC=C1OC)N=NC2=C(C=C(C=C2)Cl)[N+](=O)[O-],013515-40-7,-7.306377576,COc1ccccc1NC(=O)C(N=Nc1ccc(Cl)cc1[N+](=O)[O-])C(C)=O
2854,B-7622,2.2-bis(prop-2-enoyloxymethyl)butyl prop-2-enoate,DAKWPKUUDNSNPN-UHFFFAOYSA-N,CCC(COC(=O)C=C)(COC(=O)C=C)COC(=O)C=C,015625-89-5,-2.772790081,C=CC(=O)OCC(CC)(COC(=O)C=C)COC(=O)C=C
2855,B-7623,ethyl 2-[(2-hydroxybenzoyl)amino]acetate,LNWOPEDZGMLKPA-UHFFFAOYSA-N,CCOC(=O)CNC(=O)C1=CC=CC=C1O,060270-33-9,-4.394506159,CCOC(=O)CNC(=O)c1ccccc1O
2856,B-7624,2-hydroxy-1-[4-[[4-(2-hydroxy-2-methylpropanoyl)phenyl]methyl]phenyl]-2-methylpropan-1-one,PCKZAVNWRLEHIP-UHFFFAOYSA-N,CC(C)(C(=O)C1=CC=C(C=C1)CC2=CC=C(C=C2)C(=O)C(C)(C)O)O,474510-57-1,-4.536377576,CC(C)(O)C(=O)c1ccc(Cc2ccc(C(=O)C(C)(C)O)cc2)cc1
2857,B-7625,Hexadecanedioic acid,QQHJDPROMQRDLA-UHFFFAOYSA-N,C(CCCCCCCC(=O)O)CCCCCCC(=O)O,000505-54-4,-4.749589256,O=C(O)CCCCCCCCCCCCCCC(=O)O
2858,B-7626,(4E)-4-[(4-methoxyphenyl)methylidene]-2-[4-[(4E)-4-[(4-methoxyphenyl)methylidene]-5-oxo-1.3-oxazol-2-yl]phenyl]-1.3-oxazol-5-one,XZRFHDOOIZDXFC-DFEHQXHXSA-N,COC1=CC=C(C=C1)/C=C\2/N=C(OC2=O)C3=CC=C(C=C3)C4=N/C(=C/C5=CC=C(C=C5)OC)/C(=O)O4,051202-86-9,-6.983570973,COc1ccc(C=C2N=C(c3ccc(C4=NC(=Cc5ccc(OC)cc5)C(=O)O4)cc3)OC2=O)cc1
2859,B-7627,5-(methoxymethyl)pyridine-2.3-dicarboxylic acid,CJSGMWRJOBFTCK-UHFFFAOYSA-N,COCC1=CC(=C(N=C1)C(=O)O)C(=O)O,143382-03-0,-0.806126095,COCc1cnc(C(=O)O)c(C(=O)O)c1
2860,B-7628,1.2.3-trihexyl 2-butanoyloxypropane-1.2.3-tricarboxylate,GWVUTNGDMGTPFE-UHFFFAOYSA-N,CCCCCCOC(=O)CC(CC(=O)OCCCCCC)(C(=O)OCCCCCC)OC(=O)CCC,082469-79-2,-5.926222814,CCCCCCOC(=O)CC(CC(=O)OCCCCCC)(OC(=O)CCC)C(=O)OCCCCCC
2861,B-7629,8-(8-carboxynaphthalen-1-yl)naphthalene-1-carboxylic acid,XGDAODQNSVFBGM-UHFFFAOYSA-N,C1=CC2=C(C(=C1)C3=CC=CC4=C3C(=CC=C4)C(=O)O)C(=CC=C2)C(=O)O,029878-91-9,-2.23344059,O=C(O)c1cccc2cccc(-c3cccc4cccc(C(=O)O)c34)c12
2862,B-7630,2-(8-aminonaphthalen-2-yl)oxyacetic acid,LHBJEPBSFTYUGP-UHFFFAOYSA-N,C1=CC2=C(C=C(C=C2)OCC(=O)O)C(=C1)N,006786-83-0,-6.637937402,Nc1cccc2ccc(OCC(=O)O)cc12
2863,B-7631,4-(4-prop-1-en-2-yloxyphenyl)sulfonylphenol,AOJRCFAKFJWOCL-UHFFFAOYSA-N,CC(=C)OC1=CC=C(C=C1)S(=O)(=O)C2=CC=C(C=C2)O,097042-18-7,-4.688379735,C=C(C)Oc1ccc(S(=O)(=O)c2ccc(O)cc2)cc1
2864,B-7632,3-iminoisoindol-1-amine,RZVCEPSDYHAHLX-UHFFFAOYSA-N,C1=CC=C2C(=C1)C(=NC2=N)N,003468-11-9,-0.662170049,N=C1N=C(N)c2ccccc21
2865,B-7633,2.5-bis(phenylamino)terephthalic acid,ZJQZWNLKRBUEKX-UHFFFAOYSA-N,C1=CC=C(C=C1)NC2=CC(=C(C=C2C(=O)O)NC3=CC=CC=C3)C(=O)O,010109-95-2,-4.98572254,O=C(O)c1cc(Nc2ccccc2)c(C(=O)O)cc1Nc1ccccc1
2866,B-7635,N-[2-(ethoxy-methylphosphoryl)sulfanylethyl]-4-methoxy-N-methylaniline,VCYVNKLZFCNDMZ-UHFFFAOYSA-N,CCOP(=O)(C)SCCN(C)C1=CC=C(C=C1)OC,041294-05-7,-5.976801895,CCOP(C)(=O)SCCN(C)c1ccc(OC)cc1
2867,B-7636,N-(4-amino-3-methoxy-9.10-dioxoanthracen-1-yl)benzenesulfonamide,ZUWHJJGOYZUNDW-UHFFFAOYSA-N,COC1=C(C2=C(C(=C1)NS(=O)(=O)C3=CC=CC=C3)C(=O)C4=CC=CC=C4C2=O)N,069563-51-5,-2.35584279,COc1cc(NS(=O)(=O)c2ccccc2)c2c(c1N)C(=O)c1ccccc1C2=O
2868,B-7637,N-(5-chloro-2.4-dimethoxyphenyl)-3-hydroxynaphthalene-2-carboxamide,XDWATWCCUTYUDE-UHFFFAOYSA-N,COC1=CC(=C(C=C1NC(=O)C2=CC3=CC=CC=C3C=C2O)Cl)OC,000092-72-8,-5.377540216,COc1cc(OC)c(NC(=O)c2cc3ccccc3cc2O)cc1Cl
2869,B-7638,1.3-dioxo-2-benzofuran-5-carboxylic acid,SRPWOOOHEPICQU-UHFFFAOYSA-N,C1=CC2=C(C=C1C(=O)O)C(=O)OC2=O,000552-30-7,-0.896199931,O=C(O)c1ccc2c(c1)C(=O)OC2=O
2870,B-7639,[(1S.2R.5S.7S.9R.10R.11R.12S.16S)-10-hydroxy-2.16-dimethyl-14-methylidene-15-oxo-8-oxapentacyclo[9.7.0.02.7.07.9.012.16]octadecan-5-yl] 2.2-dimethylpropanoate,VOQHNQVAJZWHBJ-FBSFBOIFSA-N,C[C@]12CC[C@@H](C[C@@]13[C@H](O3)[C@@H]([C@@H]4[C@@H]2CC[C@]5([C@H]4CC(=C)C5=O)C)O)OC(=O)C(C)(C)C,082544-13-6,-3.655885984,C=C1CC2C3C(O)C4OC45CC(OC(=O)C(C)(C)C)CCC5(C)C3CCC2(C)C1=O
2871,B-7640,ethoxy-hydroxy-oxosilane,JDAIJCNBFIWLJJ-UHFFFAOYSA-N,CCO[Si](=O)O,011099-06-2,-3.80420499,CCO[Si](=O)O
2872,B-7641,N-(4-hydroxyphenyl)benzenesulfonamide,WHZPMLXZOSFAKY-UHFFFAOYSA-N,C1=CC=C(C=C1)S(=O)(=O)NC2=CC=C(C=C2)O,005471-90-9,-2.493604069,O=S(=O)(Nc1ccc(O)cc1)c1ccccc1
2873,B-7643,1.3.5.7.9.11-hexabromocyclododecane,LEOCKULGXOQRTQ-UHFFFAOYSA-N,C1C(CC(CC(CC(CC(CC1Br)Br)Br)Br)Br)Br,025637-99-4,-6.990426982,BrC1CC(Br)CC(Br)CC(Br)CC(Br)CC(Br)C1
2874,B-7644,2-butan-2-yl-4-[4-[4-(4-methoxyphenyl)piperazin-1-yl]phenyl]-1.2.4-triazol-3-one,IVIVGYTUQVJVPF-UHFFFAOYSA-N,CCC(C)N1C(=O)N(C=N1)C2=CC=C(C=C2)N3CCN(CC3)C4=CC=C(C=C4)OC,252964-68-4,-5.860406644,CCC(C)n1ncn(-c2ccc(N3CCN(c4ccc(OC)cc4)CC3)cc2)c1=O
2875,B-7645,(8R.9S.10R.13S.14S)-17-hydroxy-17-(3-hydroxyprop-1-ynyl)-10.13-dimethyl-2.6.7.8.9.11.12.14.15.16-decahydro-1H-cyclopenta[a]phenanthren-3-one,GBFFSHZRGVVSDW-ASWBSXDLSA-N,C[C@]12CCC(=O)C=C1CC[C@@H]3[C@@H]2CC[C@]4([C@H]3CCC4(C#CCO)O)C,055542-26-2,-3.526060404,CC12CCC(=O)C=C1CCC1C2CCC2(C)C1CCC2(O)C#CCO
2876,B-7646,2-[(E)-oct-2-enyl]butanedioic acid,QWBQTFQCJMOSPK-VOTSOKGWSA-N,CCCCC/C=C/CC(CC(=O)O)C(=O)O,062568-82-5,-2.404239813,CCCCCC=CCC(CC(=O)O)C(=O)O
2877,B-7648,2-chloro-N-(2-chloroethyl)-N-[chloromethyl-(4-chlorophenyl)sulfanylphosphoryl]ethanamine,RCPIAFQOZMYPGI-UHFFFAOYSA-N,C1=CC(=CC=C1SP(=O)(CCl)N(CCCl)CCCl)Cl,076994-37-1,-0.291627428,O=P(CCl)(Sc1ccc(Cl)cc1)N(CCCl)CCCl
2878,B-7649,2-(4-cyanophenyl)guanidine,BTDGLZSKNFJBER-UHFFFAOYSA-N,C1=CC(=CC=C1C#N)N=C(N)N,005637-42-3,-1.85049985,N#Cc1ccc(N=C(N)N)cc1
2879,B-7650,3-(2-methoxy-5-methylphenyl)-3-phenylpropanoic acid,KSLPLDLDQANKOD-UHFFFAOYSA-N,CC1=CC(=C(C=C1)OC)C(CC(=O)O)C2=CC=CC=C2,109089-77-2,-4.279601723,COc1ccc(C)cc1C(CC(=O)O)c1ccccc1
2880,B-7651,phenyl-(2.3.4-trihydroxyphenyl)methanone,HTQNYBBTZSBWKL-UHFFFAOYSA-N,C1=CC=C(C=C1)C(=O)C2=C(C(=C(C=C2)O)O)O,001143-72-2,-3.345108956,O=C(c1ccccc1)c1ccc(O)c(O)c1O
2881,B-7652,(6aR)-7-methyl-6.6a.8.9-tetrahydro-4H-indolo[4.3-fg]quinoline-9-carboxylic acid,ZAGRKAFMISFKIO-LNUXAPHWSA-N,CN1CC(C=C2[C@H]1CC3=CNC4=CC=CC2=C34)C(=O)O,000082-58-6,-3.002133044,CN1CC(C(=O)O)C=C2c3cccc4[nH]cc(c34)CC21
2882,B-7653,2-(dodecanoyl-methylamino)acetic acid,BACYUWVYYTXETD-UHFFFAOYSA-N,CCCCCCCCCCCC(=O)N(C)CC(=O)O,000097-78-9,-2.734638239,CCCCCCCCCCCC(=O)N(C)CC(=O)O
2883,B-7654,(4-cyanophenyl) 4-(6-prop-2-enoyloxyhexoxy)benzoate,LNEDNZUQKOGNLJ-UHFFFAOYSA-N,C=CC(=O)OCCCCCCOC1=CC=C(C=C1)C(=O)OC2=CC=C(C=C2)C#N,083847-14-7,-7.951381679,C=CC(=O)OCCCCCCOc1ccc(C(=O)Oc2ccc(C#N)cc2)cc1
2884,B-7655,2-[3-(4-hydroxyphenyl)propanoylamino]benzoic acid,DLFOKZQWYFNKCL-UHFFFAOYSA-N,C1=CC=C(C(=C1)C(=O)O)NC(=O)CCC2=CC=C(C=C2)O,697235-49-7,-3.383417938,O=C(CCc1ccc(O)cc1)Nc1ccccc1C(=O)O
2885,B-7656,4-(4-propan-2-yloxyphenyl)sulfonylphenol,ZTILAOCGFRDHBH-UHFFFAOYSA-N,CC(C)OC1=CC=C(C=C1)S(=O)(=O)C2=CC=C(C=C2)O,095235-30-6,-4.171435386,CC(C)Oc1ccc(S(=O)(=O)c2ccc(O)cc2)cc1
2886,B-7657,4-[1.1-bis(4-hydroxyphenyl)ethyl]phenol,BRPSWMCDEYMRPE-UHFFFAOYSA-N,CC(C1=CC=C(C=C1)O)(C2=CC=C(C=C2)O)C3=CC=C(C=C3)O,027955-94-8,-4.086558906,CC(c1ccc(O)cc1)(c1ccc(O)cc1)c1ccc(O)cc1
2887,B-7658,[(3S.7R.8R.9S.10R.13S.14S.15S)-15-(2.2-dimethylpropanoyloxy)-7-hydroxy-10.13-dimethyl-17-oxo-1.2.3.4.7.8.9.11.12.14.15.16-dodecahydrocyclopenta[a]phenanthren-3-yl] 2.2-dimethylpropanoate,XFMNPFYVWKUVOJ-BMBAEVINSA-N,C[C@]12CC[C@@H](CC1=C[C@@H]([C@@H]3[C@@H]2CC[C@]4([C@H]3[C@H](CC4=O)OC(=O)C(C)(C)C)C)O)OC(=O)C(C)(C)C,085390-94-9,-5.211888202,CC(C)(C)C(=O)OC1CCC2(C)C(=CC(O)C3C2CCC2(C)C(=O)CC(OC(=O)C(C)(C)C)C32)C1
2888,B-7659,4.5.6.7-tetrachloro-3.3-bis(4-hydroxyphenyl)-2-benzofuran-1-one,NPARLLRHBQQQDY-UHFFFAOYSA-N,C1=CC(=CC=C1C2(C3=C(C(=C(C(=C3Cl)Cl)Cl)Cl)C(=O)O2)C4=CC=C(C=C4)O)O,065122-08-9,-0.1078257,O=C1OC(c2ccc(O)cc2)(c2ccc(O)cc2)c2c(Cl)c(Cl)c(Cl)c(Cl)c21
2889,B-7661,7.18-diazaheptacyclo[14.6.2.22.5.03.12.04.9.013.23.020.24]hexacosa-1(23).2.4.9.11.13.15.20(24).21.25-decaene-6.8.17.19-tetrone,KJOLVZJFMDVPGB-UHFFFAOYSA-N,C1=CC2=C3C(=CC=C4C3=C1C5=C6C4=CC=C7C6=C(C=C5)C(=O)NC7=O)C(=O)NC2=O,000081-33-4,-7.591458634,O=C1NC(=O)c2ccc3c4ccc5c6c(ccc(c7ccc1c2c73)c64)C(=O)NC5=O
2890,B-7662,6'-(dibutylamino)-3'-methyl-2'-(phenylamino)spiro[2-benzofuran-3.9'-xanthene]-1-one,XAAILNNJDMIMON-UHFFFAOYSA-N,CCCCN(CCCC)C1=CC2=C(C=C1)C3(C4=CC=CC=C4C(=O)O3)C5=C(O2)C=C(C(=C5)NC6=CC=CC=C6)C,089331-94-2,-7.404247912,CCCCN(CCCC)c1ccc2c(c1)Oc1cc(C)c(Nc3ccccc3)cc1C21OC(=O)c2ccccc21
2891,B-7663,[(3R.5S.8R.9S.10S.13S.14S.17S)-3-[bis(2-chloroethyl)carbamoyloxy]-10.13-dimethyl-2.3.4.5.6.7.8.9.11.12.14.15.16.17-tetradecahydro-1H-cyclopenta[a]phenanthren-17-yl] N.N-bis(2-chloroethyl)carbamate,RWHNPJRLKOXYHE-SZIXCRECSA-N,C[C@]12CC[C@H](C[C@@H]1CC[C@@H]3[C@@H]2CC[C@]4([C@H]3CC[C@@H]4OC(=O)N(CCCl)CCCl)C)OC(=O)N(CCCl)CCCl,003618-73-3,-8.08230567,CC12CCC(OC(=O)N(CCCl)CCCl)CC1CCC1C2CCC2(C)C(OC(=O)N(CCCl)CCCl)CCC12
2892,B-7664,N-(4-amino-3-methoxy-9.10-dioxoanthracen-1-yl)-4-methylbenzenesulfonamide,BXIGAWRFDMDLTL-UHFFFAOYSA-N,CC1=CC=C(C=C1)S(=O)(=O)NC2=CC(=C(C3=C2C(=O)C4=CC=CC=C4C3=O)N)OC,000081-68-5,-5.112562443,COc1cc(NS(=O)(=O)c2ccc(C)cc2)c2c(c1N)C(=O)c1ccccc1C2=O
2893,B-7665,2-fluoro-4-[7-(quinolin-6-ylmethyl)imidazo[1.2-b][1.2.4]triazin-2-yl]benzonitrile,DCHLMGJQDKHZLO-UHFFFAOYSA-N,C1=CC2=C(C=CC(=C2)CC3=CN=C4N3N=C(C=N4)C5=CC(=C(C=C5)C#N)F)N=C1,1029714-87-1,-3.1823005,N#Cc1ccc(-c2cnc3ncc(Cc4ccc5ncccc5c4)n3n2)cc1F
2894,B-7666,7-amino-3-methyl-8-oxo-5-thia-1-azabicyclo[4.2.0]oct-2-ene-2-carboxylic acid,NVIAYEIXYQCDAN-UHFFFAOYSA-N,CC1=C(N2C(C(C2=O)N)SC1)C(=O)O,022252-43-3,-3.045340413,CC1=C(C(=O)O)N2C(=O)C(N)C2SC1
2895,B-7667,3-hydroxy-N-[(Z)-4-methylpentan-2-ylideneamino]naphthalene-2-carboxamide,HPTJCEPNQHYWIH-PDGQHHTCSA-N,CC(C)C/C(=N\NC(=O)C1=CC2=CC=CC=C2C=C1O)/C,214417-91-1,-4.813382792,CC(CC(C)C)=NNC(=O)c1cc2ccccc2cc1O
2896,B-7668,2.6-ditert-butyl-4-(diethoxyphosphorylmethyl)phenol,GJDRKHHGPHLVNI-UHFFFAOYSA-N,CCOP(=O)(CC1=CC(=C(C(=C1)C(C)(C)C)O)C(C)(C)C)OCC,000976-56-7,-4.40585974,CCOP(=O)(Cc1cc(C(C)(C)C)c(O)c(C(C)(C)C)c1)OCC
2897,B-7669,N-(5-chloro-2-methylphenyl)-3-hydroxynaphthalene-2-carboxamide,XZOACPDZZYNJER-UHFFFAOYSA-N,CC1=C(C=C(C=C1)Cl)NC(=O)C2=CC3=CC=CC=C3C=C2O,000135-63-7,-5.238557778,Cc1ccc(Cl)cc1NC(=O)c1cc2ccccc2cc1O
2898,B-7670,2-(2-methoxy-4-nitrophenyl)diazenyl-N-(2-methoxyphenyl)-3-oxobutanamide,ZTISORAUJJGACZ-UHFFFAOYSA-N,CC(=O)C(C(=O)NC1=CC=CC=C1OC)N=NC2=C(C=C(C=C2)[N+](=O)[O-])OC,006358-31-2,-7.706182387,COc1cc([N+](=O)[O-])ccc1N=NC(C(C)=O)C(=O)Nc1ccccc1OC
2899,B-7671,4-(4-methylphenyl)sulfonylbenzene-1.2-diol,OGIVREKRNQXGTA-UHFFFAOYSA-N,CC1=CC=C(C=C1)S(=O)(=O)C2=CC(=C(C=C2)O)O,107065-85-0,-3.503011512,Cc1ccc(S(=O)(=O)c2ccc(O)c(O)c2)cc1
2900,B-7672,3-oxopentanedioic acid,OXTNCQMOKLOUAM-UHFFFAOYSA-N,C(C(=O)CC(=O)O)C(=O)O,000542-05-2,0.542921744,O=C(O)CC(=O)CC(=O)O
2901,B-7673,2-[[4-[2-(4-cyclohexylphenoxy)ethyl-ethylamino]-2-methylphenyl]methylidene]propanedinitrile,NQAJBKZEQYYFGK-UHFFFAOYSA-N,CCN(CCOC1=CC=C(C=C1)C2CCCCC2)C3=CC(=C(C=C3)C=C(C#N)C#N)C,054079-53-7,-8.386131609,CCN(CCOc1ccc(C2CCCCC2)cc1)c1ccc(C=C(C#N)C#N)c(C)c1
2902,B-7674,12-Hydroxy-N-(2-hydroxyethyl)octadecanamide,OZSKVMIBRHDIET-UHFFFAOYSA-N,CCCCCCC(CCCCCCCCCCC(=O)NCCO)O,000106-15-0,-4.621481325,CCCCCCC(O)CCCCCCCCCCC(=O)NCCO
2903,B-7675,4-Methoxy-3-nitrobenzoic acid,ANXBDAFDZSXOPQ-UHFFFAOYSA-N,COC1=C(C=C(C=C1)C(=O)O)[N+](=O)[O-],000089-41-8,-2.661321717,COc1ccc(C(=O)O)cc1[N+](=O)[O-]
2904,B-7676,1-[(2.4-dinitrophenyl)diazenyl]naphthalen-2-ol,HBHZKFOUIUMKHV-UHFFFAOYSA-N,C1=CC=C2C(=C1)C=CC(=C2N=NC3=C(C=C(C=C3)[N+](=O)[O-])[N+](=O)[O-])O,003468-63-1,-7.729934232,O=[N+]([O-])c1ccc(N=Nc2c(O)ccc3ccccc23)c([N+](=O)[O-])c1
2905,B-7677,4-[(4-chloro-2-nitrophenyl)diazenyl]-3-hydroxy-N-(2-methylphenyl)naphthalene-2-carboxamide,WXHYPQWKGYEJKW-UHFFFAOYSA-N,CC1=CC=CC=C1NC(=O)C2=CC3=CC=CC=C3C(=C2O)N=NC4=C(C=C(C=C4)Cl)[N+](=O)[O-],006471-50-7,-7.563213265,Cc1ccccc1NC(=O)c1cc2ccccc2c(N=Nc2ccc(Cl)cc2[N+](=O)[O-])c1O
2906,B-7678,4-methyl-N-[4-(phenylamino)phenyl]benzenesulfonamide,KEZPMZSDLBJCHH-UHFFFAOYSA-N,CC1=CC=C(C=C1)S(=O)(=O)NC2=CC=C(C=C2)NC3=CC=CC=C3,000100-93-6,-6.450279138,Cc1ccc(S(=O)(=O)Nc2ccc(Nc3ccccc3)cc2)cc1
2907,B-7679,6-[(4-methylphenyl)sulfonylamino]hexanoic acid,GLKZGJGPYOFPKV-UHFFFAOYSA-N,CC1=CC=C(C=C1)S(=O)(=O)NCCCCCC(=O)O,078521-39-8,-2.954329877,Cc1ccc(S(=O)(=O)NCCCCCC(=O)O)cc1
2908,B-7680,6-[2-(2-methylimidazol-1-yl)ethyl]-1.3.5-triazine-2.4-diamine,DRQWQDPSMJHCCM-UHFFFAOYSA-N,CC1=NC=CN1CCC2=NC(=NC(=N2)N)N,038668-46-1,-1.727095007,Cc1nccn1CCc1nc(N)nc(N)n1
2909,B-7681,2-[2-[2-[2-(2-ethylhexanoyloxy)ethoxy]ethoxy]ethoxy]ethyl 2-ethylhexanoate,GYHPTPQZVBYHLC-UHFFFAOYSA-N,CCCCC(CC)C(=O)OCCOCCOCCOCCOC(=O)C(CC)CCCC,018268-70-7,-5.608548594,CCCCC(CC)C(=O)OCCOCCOCCOCCOC(=O)C(CC)CCCC
2910,B-7682,3-methyl-1-[[3-[(3-methyl-2.5-dioxopyrrol-1-yl)methyl]phenyl]methyl]pyrrole-2.5-dione,MIIBUHIQXLFJFP-UHFFFAOYSA-N,CC1=CC(=O)N(C1=O)CC2=CC(=CC=C2)CN3C(=O)C=C(C3=O)C,119462-56-5,-3.901399944,CC1=CC(=O)N(Cc2cccc(CN3C(=O)C=C(C)C3=O)c2)C1=O
2911,B-7683,1-[4-[[4-(2.5-dioxopyrrol-1-yl)phenyl]methyl]phenyl]pyrrole-2.5-dione,XQUPVDVFXZDTLT-UHFFFAOYSA-N,C1=CC(=CC=C1CC2=CC=C(C=C2)N3C(=O)C=CC3=O)N4C(=O)C=CC4=O,013676-54-5,-5.998008059,O=C1C=CC(=O)N1c1ccc(Cc2ccc(N3C(=O)C=CC3=O)cc2)cc1
2912,B-7684,bis[2-(2-butoxyethoxy)ethyl] hexanedioate,SCABKEBYDRTODC-UHFFFAOYSA-N,CCCCOCCOCCOC(=O)CCCCC(=O)OCCOCCOCCCC,000141-17-3,-2.882183887,CCCCOCCOCCOC(=O)CCCCC(=O)OCCOCCOCCCC
2913,B-7685,4-[(2.5-dichlorophenyl)diazenyl]-3-hydroxy-N-phenylnaphthalene-2-carboxamide,HXJSTOXKASOAQW-UHFFFAOYSA-N,C1=CC=C(C=C1)NC(=O)C2=CC3=CC=CC=C3C(=C2O)N=NC4=C(C=CC(=C4)Cl)Cl,006041-94-7,-7.90738787,O=C(Nc1ccccc1)c1cc2ccccc2c(N=Nc2cc(Cl)ccc2Cl)c1O
2914,B-7686,2-oxopentanedioic acid,KPGXRSRHYNQIFN-UHFFFAOYSA-N,C(CC(=O)O)C(=O)C(=O)O,000328-50-7,0.614875911,O=C(O)CCC(=O)C(=O)O
2915,B-7687,2-[4-[2-[4-(2-prop-2-enoyloxyethoxy)phenyl]propan-2-yl]phenoxy]ethyl prop-2-enoate,XWUNIDGEMNBBAQ-UHFFFAOYSA-N,CC(C)(C1=CC=C(C=C1)OCCOC(=O)C=C)C2=CC=C(C=C2)OCCOC(=O)C=C,064401-02-1,-5.999481194,C=CC(=O)OCCOc1ccc(C(C)(C)c2ccc(OCCOC(=O)C=C)cc2)cc1
2916,B-7688,3-carbamimidoylsulfanylpropanoic acid,ICCLGNPZARKJKF-UHFFFAOYSA-N,C(CSC(=N)N)C(=O)O,005398-29-8,-1.091244825,N=C(N)SCCC(=O)O
2917,B-7689,5-(4-Hydroxyphenyl)imidazolidine-2.4-dione,UMTNMIARZPDSDI-UHFFFAOYSA-N,C1=CC(=CC=C1C2C(=O)NC(=O)N2)O,002420-17-9,-2.173104468,O=C1NC(=O)C(c2ccc(O)cc2)N1
2918,B-7690,2.9-dichloro-5.12-dihydroquinolino[2.3-b]acridine-7.14-dione,XPZQBGDNVOHQIS-UHFFFAOYSA-N,C1=CC2=C(C=C1Cl)C(=O)C3=CC4=C(C=C3N2)C(=O)C5=C(N4)C=CC(=C5)Cl,003089-17-6,-7.419804485,O=c1c2cc(Cl)ccc2[nH]c2cc3c(=O)c4cc(Cl)ccc4[nH]c3cc12
2919,B-7691,diaminophosphoryloxybenzene,AYRRNFHDJUXLEQ-UHFFFAOYSA-N,C1=CC=C(C=C1)OP(=O)(N)N,007450-69-3,-1.487651132,NP(N)(=O)Oc1ccccc1
2920,B-7692,(2S)-2-(3-hydroxy-1-adamantyl)-2-[(2-methylpropan-2-yl)oxycarbonylamino]acetic acid,UKCKDSNFBFHSHC-ZEJPWUNMSA-N,CC(C)(C)OC(=O)N[C@H](C(=O)O)C12CC3CC(C1)CC(C3)(C2)O,361442-00-4,-1.945161195,CC(C)(C)OC(=O)NC(C(=O)O)C12CC3CC(CC(O)(C3)C1)C2
2921,B-7693,3-(difluoromethyl)-1-methylpyrazole-4-carboxylic acid,RLOHOBNEYHBZID-UHFFFAOYSA-N,CN1C=C(C(=N1)C(F)F)C(=O)O,176969-34-9,-0.643754604,Cn1cc(C(=O)O)c(C(F)F)n1
2922,B-7694,[(2S.3R.4R.5R)-2.3.4.5.6-pentahydroxyhexyl] dodecanoate,HYZDYRHKPFPODK-CYGHRXIMSA-N,CCCCCCCCCCCC(=O)OC[C@@H]([C@H]([C@@H]([C@@H](CO)O)O)O)O,026657-97-6,-4.224212296,CCCCCCCCCCCC(=O)OCC(O)C(O)C(O)C(O)CO
2923,B-7695,2-oxo-N-[4-[[4-[(2-oxoazepane-1-carbonyl)amino]phenyl]methyl]phenyl]azepane-1-carboxamide,CFDIRYSIEKJPRZ-UHFFFAOYSA-N,C1CCC(=O)N(CC1)C(=O)NC2=CC=C(C=C2)CC3=CC=C(C=C3)NC(=O)N4CCCCCC4=O,054112-23-1,-7.76325871,O=C1CCCCCN1C(=O)Nc1ccc(Cc2ccc(NC(=O)N3CCCCCC3=O)cc2)cc1
2924,B-7696,(E)-3-(3.4.5-trimethoxyphenyl)prop-2-enoic acid,YTFVRYKNXDADBI-SNAWJCMRSA-N,COC1=CC(=CC(=C1OC)OC)/C=C/C(=O)O,000090-50-6,-2.830471288,COc1cc(C=CC(=O)O)cc(OC)c1OC
2925,B-7697,4-(3-methyl-5-oxo-4H-pyrazol-1-yl)benzenesulfonic acid,CWJQQASJVVAXKL-UHFFFAOYSA-N,CC1=NN(C(=O)C1)C2=CC=C(C=C2)S(=O)(=O)O,000089-36-1,-1.692628341,CC1=NN(c2ccc(S(=O)(=O)O)cc2)C(=O)C1
2926,B-7698,N-(4-amino-2.5-diethoxyphenyl)benzamide,CNXZLZNEIYFZGU-UHFFFAOYSA-N,CCOC1=CC(=C(C=C1N)OCC)NC(=O)C2=CC=CC=C2,000120-00-3,-2.405755172,CCOc1cc(NC(=O)c2ccccc2)c(OCC)cc1N
2927,B-7699,N-(5-chloro-2-methoxyphenyl)-2-(2-methoxy-4-nitrophenyl)diazenyl-3-oxobutanamide,AYOFXUHULUCJBF-UHFFFAOYSA-N,CC(=O)C(C(=O)NC1=C(C=CC(=C1)Cl)OC)N=NC2=C(C=C(C=C2)[N+](=O)[O-])OC,015993-42-7,-7.465722012,COc1cc([N+](=O)[O-])ccc1N=NC(C(C)=O)C(=O)Nc1cc(Cl)ccc1OC
2928,B-7700,(2R.3S.4S.5R.6R)-2-(hydroxymethyl)-6-[(E)-3-phenylprop-2-enoxy]oxane-3.4.5-triol,KHPCPRHQVVSZAH-GUNCLKARSA-N,C1=CC=C(C=C1)/C=C/CO[C@H]2[C@@H]([C@H]([C@@H]([C@H](O2)CO)O)O)O,008050-09-7,-5.517517576,OCC1OC(OCC=Cc2ccccc2)C(O)C(O)C1O