,C_ID,Name,InChIKey,SMILES,CAS,LogS,smiles_canon
1289,B-5692,1.2-Benzisothiazol-3-amine. N-phenyl-. 1.1-dioxi,PMSHCTAHVFWNET-UHFFFAOYSA-N,C1=CC=C(C=C1)NC2=NS(=O)(=O)C3=CC=CC=C32,007668-23-7,-3.7132,O=S1(=O)N=C(Nc2ccccc2)c2ccccc21
1290,B-5696,Florasulam,QZXATCCPQKOEIH-UHFFFAOYSA-N,COC1=NC=C(C2=NC(=NN21)S(=O)(=O)NC3=C(C=CC=C3F)F)F,145701-23-1,-1.751988014,COc1ncc(F)c2nc(S(=O)(=O)Nc3c(F)cccc3F)nn12
1291,B-5700,Difunone,GWZYSXKZOOVIDP-XFXZXTDPSA-N,CN(C)/C=C\1/C(=C(C(=O)O1)C#N)C2=CC=CC=C2,007703-36-8,-1.123004705,CN(C)C=C1OC(=O)C(C#N)=C1c1ccccc1
1292,B-5703,1H-Imidazole-4.5-dicarboxylic acid. 2-propyl-,BGPZYJSOTDBJMV-UHFFFAOYSA-N,CCCC1=NC(=C(N1)C(=O)O)C(=O)O,058954-23-7,-2.1898,CCCc1nc(C(=O)O)c(C(=O)O)[nH]1
1293,B-5706,Ethyl 2-formamido (3.4-dimethoxyphenyl) acrylate,NLFLEJNTMQHUTI-YRNVUSSQSA-N,CCOC(=O)/C(=C\C1=CC(=C(C=C1)OC)OC)/NC=O,136986-58-8,-2.4086,CCOC(=O)C(=Cc1ccc(OC)c(OC)c1)NC=O
1294,B-5709,4-Pteridinol. 6.7-diethyl-,WIUUIGUJULBTKD-UHFFFAOYSA-N,CCC1=C(N=C2C(=N1)C(=O)N=CN2)CC,102943-71-5,-1.9122,CCc1nc2[nH]cnc(=O)c2nc1CC
1295,B-5713,?-D-Galactopyranosiduronic acid. methyl. methyl,DCXMXXNUXSBWDI-FPJCOBNTSA-N,CO[C@@H]1[C@@H]([C@H]([C@H]([C@H](O1)C(=O)OC)O)O)O,005155-54-4,-0.264,COC(=O)C1OC(OC)C(O)C(O)C1O
1296,B-5715,1.2-Benzenedicarboxylic acid. 3.4-dimethoxy-. 2-,MKDRDNZMGUXDIU-UHFFFAOYSA-N,COC(=O)C1=C(C=CC(OC)=C1OC)C(O)=O,128823-80-3,-2.0405,COC(=O)c1c(C(=O)O)ccc(OC)c1OC
1297,B-5717,Benzenesulfonamide. 4-amino-N-(3.5-dimethyl-4-is,BTWNKPNDKBRQRN-UHFFFAOYSA-N,CC1=C(C(=NO1)C)NS(=O)(=O)C2=CC=C(C=C2)N,064682-95-7,-3.184,Cc1noc(C)c1NS(=O)(=O)c1ccc(N)cc1
1298,B-5719,2-Oxazolidinone. 3-[[3-(5-nitro-2-furyl)allylide,VVCKHODQOZBLBQ-UAIOPKHMSA-N,C1COC(=O)N1/N=C/C=C/C2=CC=C(O2)[N+](=O)[O-],003318-78-3,-4.4177,O=C1OCCN1N=CC=Cc1ccc([N+](=O)[O-])o1
1299,B-5725,1-(2-methoxy-5-methylphenyl)-3-[(3-nitrophenyl)methylideneamino]thiourea,RBFWNKHUHWWMCO-UHFFFAOYSA-N,CC1=CC(=C(C=C1)OC)NC(=S)N/N=C/C2=CC(=CC=C2)[N+](=O)[O-],006668-12-8,-0.694493758,COc1ccc(C)cc1NC(=S)NN=Cc1cccc([N+](=O)[O-])c1
1300,B-5730,(2R)-2-[4-[(6-chloro-1.3-benzoxazol-2-yl)oxy]phenoxy]-N-(2-fluorophenyl)-N-methylpropanamide,ADDQHLREJDZPMT-CQSZACIVSA-N,C[C@@H](OC1=CC=C(OC2=NC3=C(O2)C=C(Cl)C=C3)C=C1)C(=O)N(C)C1=CC=CC=C1F,256412-89-2,-5.807284849,CC(Oc1ccc(Oc2nc3ccc(Cl)cc3o2)cc1)C(=O)N(C)c1ccccc1F
1301,B-5735,Benzenesulfonic acid. p-[(p-nitrophenyl)azo]-,RLKGRKZRIZYVSG-UHFFFAOYSA-N,C1=CC(=CC=C1N=NC2=CC=C(C=C2)S(=O)(=O)O)[N+](=O)[O-],023792-61-2,-0.9962,O=[N+]([O-])c1ccc(N=Nc2ccc(S(=O)(=O)O)cc2)cc1
1302,B-5736,Benzenesulfonamide. 4-amino-N-(4-methoxy-2-pyrim,GYAXOMJLDKJSGB-UHFFFAOYSA-N,COC1=NC(=NC=C1)NS(=O)(=O)C2=CC=C(C=C2)N,003213-22-7,-3.1876,COc1ccnc(NS(=O)(=O)c2ccc(N)cc2)n1
1303,B-5742,Benzenesulfonamide. 4-[(phenylmethyl)amino]-,ZHKXBELKPQXYEH-UHFFFAOYSA-N,C1=CC=C(C=C1)CNS(=O)(=O)C2=CC=C(C=C2)N,000104-22-3,-1.7854,Nc1ccc(S(=O)(=O)NCc2ccccc2)cc1
1304,B-5743,N-(2.6-dichlorophenyl)-5-ethoxy-7-fluoro-[1.2.4]triazolo[5.1-f]pyrimidine-2-sulfonamide,QNXAVFXEJCPCJO-UHFFFAOYSA-N,CCOC1=NC(=CC2=NC(=NN21)S(=O)(=O)NC3=C(C=CC=C3Cl)Cl)F,145701-21-9,-4.808042192,CCOc1nc(F)cc2nc(S(=O)(=O)Nc3c(Cl)cccc3Cl)nn12
1305,B-5745,2-[(2.4-dinitrophenyl)diazenyl]propanoic acid,SAHAFWQHWNWOEF-UHFFFAOYSA-N,CC(\N=N\C1=CC=C(C=C1N(=O)=O)N(=O)=O)C(O)=O,020724-92-9,-1.0305,CC(N=Nc1ccc([N+](=O)[O-])cc1[N+](=O)[O-])C(=O)O
1306,B-5747,1-[2-[6-(2-chlorophenoxy)-5-fluoropyrimidin-4-yl]oxyphenyl]-1-(5.6-dihydro-1.4.2-dioxazin-3-yl)-N-methoxymethanimine,UFEODZBUAFNAEU-NLRVBDNBSA-N,CO/N=C(\C1=CC=CC=C1OC2=C(C(=NC=N2)OC3=CC=CC=C3Cl)F)/C4=NOCCO4,361377-29-9,-5.301818785,CON=C(C1=NOCCO1)c1ccccc1Oc1ncnc(Oc2ccccc2Cl)c1F
1307,B-5749,Butanedioic acid. 2-hydroxy-2-phenyl-,REDMBNQXBOTRET-UHFFFAOYSA-N,OC(=O)CC(O)(C(O)=O)C1=CC=CC=C1,030952-65-9,-1.1267,O=C(O)CC(O)(C(=O)O)c1ccccc1
1308,B-5750,Benzenesulfonamide. 4-amino-N-2-oxazolyl-,RYKARZOAAYTVAL-UHFFFAOYSA-N,C1=CC(=CC=C1N)S(=O)(=O)NC2=NC=CO2,017103-51-4,-1.9286,Nc1ccc(S(=O)(=O)Nc2ncco2)cc1
1309,B-5751,Cimectacarb,RVKCCVTVZORVGD-UHFFFAOYSA-N,CCOC(=O)C1CC(=O)C(=C(C2CC2)O)C(=O)C1,095266-40-3,-1.39324822,CCOC(=O)C1CC(=O)C(=C(O)C2CC2)C(=O)C1
1310,B-5752,Cis-1.2-bis-(1-methyl-3-oxo-but-1-enylamino)-cyc,QNIPROSCSFQJIO-WGDLNXRISA-N,CC(=O)\C=C(/C)NC1CCCCC1N\C(C)=C\C(C)=O,005769-37-9,-1.699,CC(=O)C=C(C)NC1CCCCC1NC(C)=CC(C)=O
1311,B-5754,Hydrazinecarbothioamide. 2-[3-[5-nitro-2-furanyl,MFKJKDJNFMUPQU-PAERIMEKSA-N,NC(=S)N\N=C\C=C\C1=CC=C(O1)N(=O)=O,018854-93-8,-3.9493,NC(=S)NN=CC=Cc1ccc([N+](=O)[O-])o1
1312,B-5755,1.2.3-Benzenetricarboxylic acid. 5-chloro-,CJFUSXTZNHJXBV-UHFFFAOYSA-N,OC(=O)C1=CC(Cl)=CC(C(O)=O)=C1C(O)=O,029016-74-8,-1.0809,O=C(O)c1cc(Cl)cc(C(=O)O)c1C(=O)O
1313,B-5756,Glycine. N-(dithiocarboxy)-. N-ester with mercap,FKNJURNHJJFOFH-UHFFFAOYSA-N,C(C(=O)O)N=C(S)SCC(=O)O,029677-65-4,-1.3011,O=C(O)CN=C(S)SCC(=O)O
1314,B-5757,4(1H)-Pteridinethione,GTLUQRDIJWHQGF-UHFFFAOYSA-N,C1=CN=C2C(=N1)C(=S)N=CN2,065882-61-3,-2.6471,S=c1nc[nH]c2nccnc12
1315,B-5759,2-[N-(3-Chloroprop-2-enoxy)-C-ethylcarbonimidoyl]-5-(2-ethylsulfanylpropyl)-3-hydroxycyclohex-2-en-1-one,SILSDTWXNBZOGF-KUZBFYBWSA-N,CC/C(=N\OC/C=C/Cl)/C1=C(CC(CC1=O)CC(C)SCC)O,099129-21-2,-1.819797773,CCSC(C)CC1CC(=O)C(C(CC)=NOCC=CCl)=C(O)C1
1316,B-5760,Flocoumafen,OWUZCVPRFKSBRG-UHFFFAOYSA-N,C1C(CC2=CC=CC=C2C1C3=C(OC4=CC=CC=C4C3=O)O)C5=CC=C(C=C5)OCC6=CC=C(C=C6)C(F)(F)F,090035-08-8,-5.71740907,O=c1c(C2CC(c3ccc(OCc4ccc(C(F)(F)F)cc4)cc3)Cc3ccccc32)c(O)oc2ccccc12
1317,B-5762,Benzenesulfonamide. 4-amino-N-(4-ethoxy-2-pyrimi,ZHUYDWZLTZQVMN-UHFFFAOYSA-N,CCOC1=NC(=NC=C1)NS(=O)(=O)C2=CC=C(C=C2)N,071138-72-2,-3.7446,CCOc1ccnc(NS(=O)(=O)c2ccc(N)cc2)n1
1318,B-5765,nitroguanidine,IDCPFAYURAQKDZ-UHFFFAOYSA-N,C(=N[N+](=O)[O-])(N)N,000556-88-7,-1.3739,NC(N)=N[N+](=O)[O-]
1319,B-5767,1.3-Benzenedicarboxylic acid. 5-chloro-,PLPFTLXIQQYOMW-UHFFFAOYSA-N,C1=C(C=C(C=C1C(=O)O)Cl)C(=O)O,002157-39-3,-2.8399,O=C(O)c1cc(Cl)cc(C(=O)O)c1
1320,B-5769,Sulfanilamide. N1-(1.4-dihydro-1.4-dioxo-2-napht,KAHTUTUIWFIUTC-UHFFFAOYSA-N,C1=CC=C2C(=C1)C(=O)C=C(C2=O)NS(=O)(=O)C3=CC=C(C=C3)N,022359-66-6,-3.8631,Nc1ccc(S(=O)(=O)NC2=CC(=O)c3ccccc3C2=O)cc1
1321,B-5770,Sulfanilamide. N1-(4-isobutyl-2-pyrimidinyl)-,HAHJBRYAJBYMHW-UHFFFAOYSA-N,CC(C)CC1=CC=NC(NS(=O)(=O)C2=CC=C(N)C=C2)=N1,106596-34-3,-3.4863,CC(C)Cc1ccnc(NS(=O)(=O)c2ccc(N)cc2)n1
1322,B-5772,Glycine. N-[(2-methyl-5-nitrophenyl)sulfonyl]-,GISWIXLYKWWBTE-UHFFFAOYSA-N,CC1=CC=C(C=C1S(=O)(=O)NCC(O)=O)N(=O)=O,067320-39-2,-2.3078,Cc1ccc([N+](=O)[O-])cc1S(=O)(=O)NCC(=O)O
1323,B-5775,Di-1-hexanesulfonamide,CKPIWBTXNLQELX-UHFFFAOYSA-N,CCCCCCS(=O)(=O)NS(=O)(=O)CCCCCC,019288-69-8,-2.1952,CCCCCCS(=O)(=O)NS(=O)(=O)CCCCCC
1324,B-5776,3-(4.6-dimethoxypyrimidin-2-yl)-1-[3-(trifluoromethyl)pyridin-2-yl]sulfonylurea,HWATZEJQIXKWQS-UHFFFAOYSA-N,COC1=CC(=NC(=N1)NC(=O)NS(=O)(=O)C2=C(C=CC=N2)C(F)(F)F)OC,104040-78-0,-2.287720172,COc1cc(OC)nc(NC(=O)NS(=O)(=O)c2ncccc2C(F)(F)F)n1
1325,B-5777,Acetamide. N-[4-[[(4-methyl-2-thiazolyl)amino]su,UTTXCVWQZVYQRZ-UHFFFAOYSA-N,CC(=O)NC1=CC=C(C=C1)S(=O)(=O)NC1=NC(C)=CS1,071119-13-6,-3.693940402,CC(=O)Nc1ccc(S(=O)(=O)Nc2nc(C)cs2)cc1
1326,B-5778,N1-(6-CL-3-PYRIDYL)SULFANILAMIDE,WJFIIFOTAPDUOE-UHFFFAOYSA-N,C1=CC(=CC=C1N)S(=O)(=O)NC2=CN=C(C=C2)Cl,034392-82-0,-3.1976,Nc1ccc(S(=O)(=O)Nc2ccc(Cl)nc2)cc1
1327,B-5779,BENZENESULFONAMIDE. 4-[3-HYDROXY-3-METHYLBUTYL)T,QDBGFWZGJHWBLM-UHFFFAOYSA-N,CC(C)(CCSC1=CC=C(C=C1)S(=O)(=O)N)O,108966-53-6,-2.838,CC(C)(O)CCSc1ccc(S(N)(=O)=O)cc1
1328,B-5781,4-dimethoxyphosphinothioyloxy-N.N-dimethylbenzenesulfonamide,JISACBWYRJHSMG-UHFFFAOYSA-N,CN(C)S(=O)(=O)C1=CC=C(C=C1)OP(=S)(OC)OC,000052-85-7,-3.512329319,COP(=S)(OC)Oc1ccc(S(=O)(=O)N(C)C)cc1
1329,B-5788,2.4(1H.3H)-Pteridinedione. 7-hydroxy-1.6-dimethy,FBEPFGKUHGVRNU-UHFFFAOYSA-N,CC1=NC2=C(NC1=O)N(C(=O)NC2=O)C,002625-22-1,-2.2931,Cc1nc2c(=O)[nH]c(=O)n(C)c2[nH]c1=O
1330,B-5789,Benzenesulfonamide. 4-amino-N-(3-ethoxy-2-pyridi,DAGCKBUHRHEBDX-UHFFFAOYSA-N,CCOC1=C(NS(=O)(=O)C2=CC=C(N)C=C2)N=CC=C1,071119-19-2,-3.0963,CCOc1cccnc1NS(=O)(=O)c1ccc(N)cc1
1331,B-5790,Glycine. N-methyl-N-[[(phenylmethyl)thio]thioxom,XRJDITBTRULNOY-UHFFFAOYSA-N,CN(CC(O)=O)C(=S)SCC1=CC=CC=C1,006477-73-2,-3.2311,CN(CC(=O)O)C(=S)SCc1ccccc1
1332,B-5794,Benzenesulfonamide. 4-amino-N-(6-ethoxy-3-pyridi,OUDAZSXLGPXFSC-UHFFFAOYSA-N,CCOC1=CC=C(NS(=O)(=O)C2=CC=C(N)C=C2)C=N1,071720-65-5,-3.9111,CCOc1ccc(NS(=O)(=O)c2ccc(N)cc2)cn1
1333,B-5798,4-amino-N-(5.6.7.8-tetrahydroquinazolin-2-yl)benzenesulfonamide,IPDKSGJFMBIZJI-UHFFFAOYSA-N,NC1=CC=C(C=C1)S(=O)(=O)NC1=NC2=C(CCCC2)C=N1,071119-34-1,-3.6509,Nc1ccc(S(=O)(=O)Nc2ncc3c(n2)CCCC3)cc1
1334,B-5805,Benzenesulfonamide. 4-amino-N-(5-methyl-1.2.4-ox,ASWFWIACWHAFNP-UHFFFAOYSA-N,CC1=NC(=NO1)NS(=O)(=O)C2=CC=C(C=C2)N,000723-47-7,-2.3522,Cc1nc(NS(=O)(=O)c2ccc(N)cc2)no1
1335,B-5807,dimethirimol,CJHXCRMKMMBYJQ-UHFFFAOYSA-N,CCCCC1=C(NC(=NC1=O)N(C)C)C,005221-53-4,-2.242,CCCCc1c(C)[nH]c(N(C)C)nc1=O
1336,B-5808,Benzenesulfonamide. 4-amino-N-(4-propyl-2-pyrimi,NMTKGTNSNXJRJC-UHFFFAOYSA-N,CCCC1=NC(=NC=C1)NS(=O)(=O)C2=CC=C(C=C2)N,005466-36-4,-3.068,CCCc1ccnc(NS(=O)(=O)c2ccc(N)cc2)n1
1337,B-5809,Sulfanilamide. N1-(4-ethyl-2-pyrimidinyl)-,COSZGCBTURPTLV-UHFFFAOYSA-N,CCC1=NC(NS(=O)(=O)C2=CC=C(N)C=C2)=NC=C1,002276-96-2,-3.209,CCc1ccnc(NS(=O)(=O)c2ccc(N)cc2)n1
1338,B-5812,TRINEXAPAC,DFFWZNDCNBOKDI-UHFFFAOYSA-N,C1CC1C(=C2C(=O)CC(CC2=O)C(=O)O)O,104273-73-6,-2.2367,O=C1CC(C(=O)O)CC(=O)C1=C(O)C1CC1
1339,B-5815,N-[2.4-dichloro-5-[4-(difluoromethyl)-3-methyl-5-oxo-1.2.4-triazol-1-yl]phenyl]methanesulfonamide,OORLZFUTLGXMEF-UHFFFAOYSA-N,CC1=NN(C(=O)N1C(F)F)C2=C(C=C(C(=C2)NS(=O)(=O)C)Cl)Cl,122836-35-5,-2.695827062,Cc1nn(-c2cc(NS(C)(=O)=O)c(Cl)cc2Cl)c(=O)n1C(F)F
1340,B-5826,Hydrazinecarbothioamide. 2-(4-nitrophenyl)-N-2-p,RUBNOJFDOZNHSQ-UHFFFAOYSA-N,C=CCNC(=S)NNC1=CC=C(C=C1)[N+](=O)[O-],017073-27-7,-2.9106,C=CCNC(=S)NNc1ccc([N+](=O)[O-])cc1
1341,B-5827,Benzenesulfonamide. 4-amino-N-(6-bromo-3-pyridin,MPODODXILOYOLX-UHFFFAOYSA-N,C1=CC(=CC=C1N)S(=O)(=O)NC2=CN=C(C=C2)Br,017103-43-4,-3.4298,Nc1ccc(S(=O)(=O)Nc2ccc(Br)nc2)cc1
1342,B-5828,2H-1.2.3-Triazole-4-carboxylic acid. 5-(2-carbox,KIANDUXTXYWIIF-UHFFFAOYSA-N,OC(=O)C1=NN(N=C1C1=C(C=CC=C1)C(O)=O)C1=CC=CC=C1,122510-85-4,-2.1893,O=C(O)c1ccccc1-c1nn(-c2ccccc2)nc1C(=O)O
1343,B-5833,1.2.3-Cyclopropanetricarboxylic acid,UVIRSBTTXOHPDA-UHFFFAOYSA-N,C1(C(C1C(=O)O)C(=O)O)C(=O)O,048126-70-1,0.7592,O=C(O)C1C(C(=O)O)C1C(=O)O
1344,B-5836,Benzenesulfonamide. 4-amino-N-5-pyrimidinyl-,OIPFAEVFPXYUDR-UHFFFAOYSA-N,C1=CC(=CC=C1N)S(=O)(=O)NC2=CN=CN=C2,017103-48-9,-3.4072,Nc1ccc(S(=O)(=O)Nc2cncnc2)cc1
1345,B-5837,Thiamethoxam,NWWZPOKUUAIXIW-DHZHZOJOSA-N,CN\1COCN(/C1=N/[N+](=O)[O-])CC2=CN=C(S2)Cl,153719-23-4,-1.852169991,CN1COCN(Cc2cnc(Cl)s2)C1=N[N+](=O)[O-]
1346,B-5840,Benzenesulfonamide. 4-amino-N-(2-chloro-5-pyrimi,RMFPEJPMFLINPG-UHFFFAOYSA-N,NC1=CC=C(C=C1)S(=O)(=O)NC1=CN=C(Cl)N=C1,017103-49-0,-2.9479,Nc1ccc(S(=O)(=O)Nc2cnc(Cl)nc2)cc1
1347,B-5841,Benzenesulfonamide. 4-amino-N-[5.6.7.8-tetrahydr,SPWMJDSWMVZTIE-UHFFFAOYSA-N,CC(C)C1CCC(C)C2=C1N=C(NS(=O)(=O)C1=CC=C(N)C=C1)N=C2,071119-36-3,-4.1767,CC1CCC(C(C)C)c2nc(NS(=O)(=O)c3ccc(N)cc3)ncc21
1348,B-5842,Benzenesulfonamide. 4-amino-N-(2-methyl-4-pyrimi,XXFFPIGCLCJRHI-UHFFFAOYSA-N,CC1=NC(NS(=O)(=O)C2=CC=C(N)C=C2)=CC=N1,000599-84-8,-1.6276,Cc1nccc(NS(=O)(=O)c2ccc(N)cc2)n1
1349,B-5843,3-(2-chloro-4-methylsulfonylbenzoyl)-2-phenylsulfanylbicyclo[3.2.1]oct-2-en-4-one,VIXCLRUCUMWJFF-UHFFFAOYSA-N,CS(=O)(=O)C1=CC(=C(C=C1)C(=O)C2=C(C3CCC(C3)C2=O)SC4=CC=CC=C4)Cl,156963-66-5,-6.934304179,CS(=O)(=O)c1ccc(C(=O)C2=C(Sc3ccccc3)C3CCC(C3)C2=O)c(Cl)c1
1350,B-5846,3-(4-methoxy-6-methyl-1.3.5-triazin-2-yl)-1-[2-(3.3.3-trifluoropropyl)phenyl]sulfonylurea,LTUNNEGNEKBSEH-UHFFFAOYSA-N,CC1=NC(=NC(=N1)OC)NC(=O)NS(=O)(=O)C2=CC=CC=C2CCC(F)(F)F,094125-34-5,-2.020545342,COc1nc(C)nc(NC(=O)NS(=O)(=O)c2ccccc2CCC(F)(F)F)n1
1351,B-5847,Benzenesulfonamide. 4-amino-N-2-benzothiazolyl-,BLEXKHFCGBOLFZ-UHFFFAOYSA-N,C1=CC=C2C(=C1)N=C(S2)NS(=O)(=O)C3=CC=C(C=C3)N,006138-01-8,-5.4848,Nc1ccc(S(=O)(=O)Nc2nc3ccccc3s2)cc1
1352,B-5852,Propanoic acid. 3.3'-selenobis-,LHIOEPUJNRFLFW-UHFFFAOYSA-N,C(C[Se]CCC(=O)O)C(=O)O,002168-88-9,-1.7219,O=C(O)CC[Se]CCC(=O)O
1353,B-5864,3.5-dioxo-4-propanoylcyclohexane-1-carboxylic acid,BUCOQPHDYUOJSI-UHFFFAOYSA-N,CCC(=O)C1C(=O)CC(CC1=O)C(=O)O,088805-35-0,-2.431326517,CCC(=O)C1C(=O)CC(C(=O)O)CC1=O
1354,B-5867,Ethyrimol,BBXXLROWFHWFQY-UHFFFAOYSA-N,CCCCC1=C(NC(=NC1=O)NCC)C,023947-60-6,-3.02,CCCCc1c(C)[nH]c(NCC)nc1=O
1355,B-5869,Butanedioic acid. (1-methylethenyl)-,JUJVFYCXJFWVJY-UHFFFAOYSA-N,CC(=C)C(CC(=O)O)C(=O)O,087989-21-7,-0.3206,C=C(C)C(CC(=O)O)C(=O)O
1356,B-5873,Sulfanilamide. N1-(4-pentyl-2-pyrimidinyl)-,ZFVJMQJUMYSDOT-UHFFFAOYSA-N,CCCCCC1=CC=NC(NS(=O)(=O)C2=CC=C(N)C=C2)=N1,107203-72-5,-3.2047,CCCCCc1ccnc(NS(=O)(=O)c2ccc(N)cc2)n1
1357,B-5879,1.2-Benzisothiazol-3-amine. 1.1-dioxide,QNOQSOJREDRYBC-UHFFFAOYSA-N,C1=CC=C2C(=C1)C(=NS2(=O)=O)N,007668-28-2,-2.4544,NC1=NS(=O)(=O)c2ccccc21
1358,B-5883,Benzenesulfonamide. 4-amino-N-(3-methyl-2(3H)-th,SDSVKMXBDBZYJJ-UHFFFAOYSA-N,CN1C=CSC1=NS(=O)(=O)C2=CC=C(C=C2)N,058944-06-2,-3.0879,Cn1ccsc1=NS(=O)(=O)c1ccc(N)cc1
1359,B-5886,Benzenesulfonamide. 4-amino-N-(methylfurazanyl)-,PPVUTYXZHCLELJ-UHFFFAOYSA-N,CC1=NON=C1NS(=O)(=O)C1=CC=C(N)C=C1,017103-53-6,-2.15,Cc1nonc1NS(=O)(=O)c1ccc(N)cc1
1360,B-5890,Propanediamide,WRIRWRKPLXCTFD-UHFFFAOYSA-N,C(C(=O)N)C(=O)N,000108-13-4,-0.0899,NC(=O)CC(N)=O
1361,B-5897,1H-Purin-2-amine. 6-(trifluoromethyl)-,BPGSASFKCZQNNZ-UHFFFAOYSA-N,C1=NC2=C(NC(=NC2=N1)N)C(F)(F)F,002993-20-6,-3.1346,Nc1nc2ncnc-2c(C(F)(F)F)[nH]1
1362,B-5898,Imidodicarbonimidic diamide. N-1-naphthalenyl-,UUBZPMKBMHXGNE-UHFFFAOYSA-N,C1=CC=C2C(=C1)C=CC=C2N=C(N)N=C(N)N,013261-53-5,-2.3151,NC(N)=NC(N)=Nc1cccc2ccccc12
1363,B-5899,Galactaric acid. diethyl ester,VYFOOXBIRRKSIH-SOSBWXJGSA-N,CCOC(=O)[C@H]([C@@H]([C@@H]([C@H](C(=O)OCC)O)O)O)O,015909-67-8,-1.0693,CCOC(=O)C(O)C(O)C(O)C(O)C(=O)OCC
1364,B-5900,Urea. N.N'-bis(4-acetylphenyl)-,JUXJZTJLUULZRU-UHFFFAOYSA-N,CC(=O)C1=CC=C(C=C1)NC(=O)NC2=CC=C(C=C2)C(=O)C,020782-48-3,-3.859,CC(=O)c1ccc(NC(=O)Nc2ccc(C(C)=O)cc2)cc1
1365,B-5901,Acetamide. N-[4-[[(4.6-dimethyl-2-pyrimidinyl)am,LJKAKWDUZRJNPJ-UHFFFAOYSA-N,CC1=CC(=NC(=N1)NS(=O)(=O)C2=CC=C(C=C2)NC(=O)C)C,000100-90-3,-2.445,CC(=O)Nc1ccc(S(=O)(=O)Nc2nc(C)cc(C)n2)cc1
1366,B-5902,Acetamide. N-[4-[[(4-methyl-2-pyrimidinyl)amino],PHFJZKMLXDFUNB-UHFFFAOYSA-N,CC1=NC(=NC=C1)NS(=O)(=O)C2=CC=C(C=C2)NC(=O)C,000127-73-1,-3.0391,CC(=O)Nc1ccc(S(=O)(=O)Nc2nccc(C)n2)cc1
1367,B-5904,Benzenesulfonamide. 4-amino-N-(2-amino-5-pyrimid,KDWIQQMGKVEFSK-UHFFFAOYSA-N,NC1=CC=C(C=C1)S(=O)(=O)NC1=CN=C(N)N=C1,071119-38-5,-3.5047,Nc1ccc(S(=O)(=O)Nc2cnc(N)nc2)cc1
1368,B-5905,Acetanilide. 4'-(3-pyridazinylsulfamoyl)-,CAESXMWIHSGVKP-UHFFFAOYSA-N,CC(=O)NC1=CC=C(C=C1)S(=O)(=O)NC1=CC=CN=N1,106840-27-1,-2.2484,CC(=O)Nc1ccc(S(=O)(=O)Nc2cccnn2)cc1
1369,B-5907,L-Alanine. N-[(2-methyl-5-nitrophenyl)sulfonyl]-,TVQAUZKNFJQEJF-UHFFFAOYSA-N,CC(NS(=O)(=O)C1=CC(=CC=C1C)N(=O)=O)C(O)=O,067320-40-5,-2.3137,Cc1ccc([N+](=O)[O-])cc1S(=O)(=O)NC(C)C(=O)O
1370,B-5908,Benzoic acid amide. 3-(3-aminobenzoylamino)-,LJQDENZRNPWESK-UHFFFAOYSA-N,NC(=O)C1=CC=CC(NC(=O)C2=CC(N)=CC=C2)=C1,081882-67-9,-2.8507,NC(=O)c1cccc(NC(=O)c2cccc(N)c2)c1
1371,B-5911,N.N'bis--alanine,LLIQJKREYJVRFV-UHFFFAOYSA-N,CC(C(=O)O)N(CCC#N)CCC#N,005464-34-6,-0.060009904,CC(C(=O)O)N(CCC#N)CCC#N
1372,B-5915,Sulfathiourea,UEMLYRZWLVXWRU-UHFFFAOYSA-N,C1=CC(=CC=C1N)S(=O)(=O)N=C(N)S,000515-49-1,-1.3228,NC(S)=NS(=O)(=O)c1ccc(N)cc1
1373,B-5917,(2S)-2-[(1R)-1-carboxyethyl]selanylpropanoic acid,PXLQGDIGGVWXLW-ZXZARUISSA-N,C[C@H](C(=O)O)[Se][C@@H](C)C(=O)O,022659-18-3,-0.5969,CC([Se]C(C)C(=O)O)C(=O)O
1374,B-5918,Benzenesulfonamide. 4-amino-N-2-pyridinyl-. N-ox,POXFXLAMAIJLDM-UHFFFAOYSA-N,C1=CC(=NS(=O)(=O)C2=CC=C(C=C2)N)N(C=C1)O,019250-24-9,-2.4025,Nc1ccc(S(=O)(=O)N=c2ccccn2O)cc1
1375,B-5919,Acetic acid. 2.2'-selenobis-,AXGZQGKVFWKBSF-UHFFFAOYSA-N,C(C(=O)O)[Se]CC(=O)O,006228-62-2,0.5238,O=C(O)C[Se]CC(=O)O
1376,B-5922,4-amino-N-[4-(diethylamino)pyrimidin-2-yl]benzenesulfonamide,BAKWJOULPYBIME-UHFFFAOYSA-N,CCN(CC)C1=NC(NS(=O)(=O)C2=CC=C(N)C=C2)=NC=C1,071119-24-9,-3.8838,CCN(CC)c1ccnc(NS(=O)(=O)c2ccc(N)cc2)n1
1377,B-5923,4-SULFANILAMIDOPYRIMIDINE,PXDBUWPMANSAFI-UHFFFAOYSA-N,C1=CC(=CC=C1N)S(=O)(=O)NC2=NC=NC=C2,000599-82-6,-1.8494,Nc1ccc(S(=O)(=O)Nc2ccncn2)cc1
1378,B-5925,Benzenesulfonamide. 4-amino-N-(6-amino-3-pyridin,LVQULDWBTMQSCU-UHFFFAOYSA-N,NC1=CC=C(C=C1)S(=O)(=O)NC1=CN=C(N)C=C1,017103-45-6,-2.3115,Nc1ccc(S(=O)(=O)Nc2ccc(N)nc2)cc1
1379,B-5928,(4S.4aR.5S.5aR.6S.12aR)-4-(dimethylamino)-1.5.6.10.11.12a-hexahydroxy-6-methyl-3.12-dioxo-4.4a.5.5a-tetrahydrotetracene-2-carboxamide,OWFJMIVZYSDULZ-PXOLEDIWSA-N,C[C@@]1([C@H]2[C@@H]([C@H]3[C@@H](C(=O)C(=C([C@]3(C(=O)C2=C(C4=C1C=CC=C4O)O)O)O)C(=O)N)N(C)C)O)O,006153-64-6,-3.15,CN(C)C1C(=O)C(C(N)=O)=C(O)C2(O)C(=O)C3=C(O)c4c(O)cccc4C(C)(O)C3C(O)C12
1380,B-5931,2-[(4.6-dimethoxypyrimidin-2-yl)carbamoylsulfamoylamino]-N.N-dimethylbenzamide,UCDPMNSCCRBWIC-UHFFFAOYSA-N,CN(C)C(=O)C1=CC=CC=C1NS(=O)(=O)NC(=O)NC2=NC(=CC(=N2)OC)OC,213464-77-8,-2.82912473,COc1cc(OC)nc(NC(=O)NS(=O)(=O)Nc2ccccc2C(=O)N(C)C)n1
1381,B-5932,cytosine,OPTASPLRGRRNAP-UHFFFAOYSA-N,C1=C(NC(=O)N=C1)N,000071-30-7,-1.1426,Nc1ccnc(=O)[nH]1
1382,B-5934,ryanodine,JJSYXNQGLHBRRK-YSOSZROBSA-N,CC(C)[C@@]1(O)[C@@H](OC(=O)C2=CC=CN2)[C@@]2(O)[C@@]3(C)C[C@]4(O)O[C@@]5([C@H](O)[C@@H](C)CC[C@]35O)[C@@]2(O)[C@@]14C,015662-33-6,-1.489213637,CC1CCC2(O)C3(C)CC4(O)OC2(C1O)C1(O)C3(O)C(OC(=O)c2ccc[nH]2)C(O)(C(C)C)C41C
1383,B-5935,Isonicotinic acid. (3-carboxy-1-methylpropyliden,VOXWRPFVWYTAMA-MDWZMJQESA-N,C\C(CCC(O)=O)=N\NC(=O)C1=CC=NC=C1,100128-07-2,-1.5934,CC(CCC(=O)O)=NNC(=O)c1ccncc1
1384,B-5936,(2S.4R)-N-[(1S.2S)-2-chloro-1-[(2R.3R.4S.5R.6R)-3.4.5-trihydroxy-6-methylsulfanyloxan-2-yl]propyl]-4-ethylpiperidine-2-carboxamide,HBJOXQRURQPDEX-MHXMMLMNSA-N,CC[C@H]1CCN[C@@H](C1)C(=O)N[C@H]([C@H](C)Cl)[C@H]1O[C@H](SC)[C@H](O)[C@@H](O)[C@H]1O,079548-73-5,-0.768696546,CCC1CCNC(C(=O)NC(C(C)Cl)C2OC(SC)C(O)C(O)C2O)C1
1385,B-5939,Benzenesulfonamide. 4-amino-N-(5-amino-2-pyridin,VZZVQTDKIMYMCG-UHFFFAOYSA-N,NC1=CC=C(C=C1)S(=O)(=O)NC1=NC=C(N)C=C1,016840-28-1,-1.8009,Nc1ccc(S(=O)(=O)Nc2ccc(N)cn2)cc1
1386,B-5940,1.3.5-Triazin-2.4-dione. 6-amino-,YSKUZVBSHIWEFK-UHFFFAOYSA-N,C1(=NC(=O)NC(=O)N1)N,000645-93-2,-3.2219,Nc1nc(=O)[nH]c(=O)[nH]1
1387,B-5946,Carbamic acid. hexamethylenedi-. bis(4-hydroxybu,XXVXIPPJGSLKSX-UHFFFAOYSA-N,OCCCCOC(=O)NCCCCCCNC(=O)OCCCCO,101443-32-7,-1.9293,O=C(NCCCCCCNC(=O)OCCCCO)OCCCCO
1388,B-5947,Benzoic acid. 2-[[(aminocarbonyl)amino]carbonyl],ZGWSIKBJQLBUPK-UHFFFAOYSA-N,C1=CC=C(C(=C1)C(=O)NC(=O)N)C(=O)O,013435-16-0,-0.7744,NC(=O)NC(=O)c1ccccc1C(=O)O
1389,B-5948,Hex-3-ene-dioic acid,YHGNXQAFNHCBTK-OWOJBTEDSA-N,C(/C=C/CC(=O)O)C(=O)O,004436-74-2,-1.3879,O=C(O)CC=CCC(=O)O
1390,B-5951,6-amino-N-[6-oxo-6-(6-oxohexylamino)hexyl]hexanamide,HKJOYARIOKGODS-UHFFFAOYSA-N,C(CCC=O)CCNC(=O)CCCCCNC(=O)CCCCCN,063428-83-1,-1.5649,NCCCCCC(=O)NCCCCCC(=O)NCCCCCC=O
1391,B-5955,Tembotrione,IUQAXCIUEPFPSF-UHFFFAOYSA-N,CS(=O)(=O)C1=C(C(=C(C=C1)C(=O)C2C(=O)CCCC2=O)Cl)COCC(F)(F)F,335104-84-2,-1.19245515,CS(=O)(=O)c1ccc(C(=O)C2C(=O)CCCC2=O)c(Cl)c1COCC(F)(F)F
1392,B-5957,Butanoic acid. 4-phosphono-,UYRFPODVSLYSCO-UHFFFAOYSA-N,OC(=O)CCCP(O)(O)=O,004378-43-2,0.5012,O=C(O)CCCP(=O)(O)O
1393,B-5958,[di(phenyl)methylideneamino] 2.6-bis[(4.6-dimethoxypyrimidin-2-yl)oxy]benzoate,OVXMBIVWNJDDSM-UHFFFAOYSA-N,COC1=CC(=NC(=N1)OC2=C(C(=CC=C2)OC3=NC(=CC(=N3)OC)OC)C(=O)ON=C(C4=CC=CC=C4)C5=CC=CC=C5)OC,168088-61-7,-5.240972639,COc1cc(OC)nc(Oc2cccc(Oc3nc(OC)cc(OC)n3)c2C(=O)ON=C(c2ccccc2)c2ccccc2)n1
1394,B-5960,Urea. N-butyl-N'-(2.3-dihydro-1.5-dimethyl-3-oxo,PQFDUCZWWSHNBL-UHFFFAOYSA-N,CCCCNC(=O)NC1=C(C)N(C)N(C1=O)C1=CC=CC=C1,051944-17-3,-1.6293,CCCCNC(=O)Nc1c(C)n(C)n(-c2ccccc2)c1=O
1395,B-5961,Profoxydim,KRQUFUKTQHISJB-UHFFFAOYSA-N,CCCC(=NOCC(C)OC1=CC=C(C=C1)Cl)C2=C(CC(CC2=O)C3CCCSC3)O,139001-49-3,-4.943291396,CCCC(=NOCC(C)Oc1ccc(Cl)cc1)C1=C(O)CC(C2CCCSC2)CC1=O
1396,B-5964,3-Pyridinamine. 6-[(4-aminophenyl)sulfonyl]-,XVMSFILGAMDHEY-UHFFFAOYSA-N,NC1=CC=C(C=C1)S(=O)(=O)C1=NC=C(N)C=C1,005401-26-3,-2.3068,Nc1ccc(S(=O)(=O)c2ccc(N)cn2)cc1