,C_ID,Name,InChIKey,SMILES,CAS,LogS,smiles_canon
4752,B-10207,8-cyclopentyl-1.3-dimethyl-7H-purine-2.6-dione,SCVHFRLUNIOSGI-UHFFFAOYSA-N,CN1C2NC([NH]C2C(=O)N(C1=O)C)C1CCCC1,035873-49-5,-2.664169956,CN1C(=O)C2NC(C3CCCC3)NC2N(C)C1=O
4753,B-10208,7-(3-chloropropyl)-1.3-dimethylpurine-2.6-dione,MORVOYPJRATMRS-UHFFFAOYSA-N,ClCCCN1CNC2C1C(=O)N(C)C(=O)N2C,002770-66-3,-2.263280914,CN1C(=O)C2C(NCN2CCCCl)N(C)C1=O
4754,B-10209,4-oxo-2.4-di(phenyl)butanenitrile,JRWUFQJVJGKCCT-UHFFFAOYSA-N,N#CC(C1CCCCC1)CC(=O)C1CCCCC1,006268-00-4,-3.591278774,N#CC(CC(=O)C1CCCCC1)C1CCCCC1
4755,B-10211,4-methoxy-N-[2-[2-(1-methylpiperidin-2-yl)ethyl]phenyl]benzamide,PJWPNDMDCLXCOM-UHFFFAOYSA-N,COC1CCC(CC1)C(=O)NC1CCCCC1CCC1CCCCN1C,037612-13-8,-5.391492382,COC1CCC(C(=O)NC2CCCCC2CCC2CCCCN2C)CC1
4756,B-10212,6.6-dimethylbenzo[c]chromene-1.3-diol,YWPDGABYTMCJDP-UHFFFAOYSA-N,OC1CC(O)C2C(C1)OC(C1C2CCCC1)(C)C,016720-01-7,-4.651109545,CC1(C)OC2CC(O)CC(O)C2C2CCCCC21
4757,B-10214,2-(2-hydroxyethoxy)-N.N-dimethylbenzamide,BAFGPPSWVHCIPE-UHFFFAOYSA-N,OCCOC1CCCCC1C(=O)N(C)C,063886-95-3,-0.586655803,CN(C)C(=O)C1CCCCC1OCCO
4758,B-10215,3-(2-bromo-6-propylphenoxy)propane-1.2-diol,RNKBIXXGAAQHCZ-UHFFFAOYSA-N,CCCC1CCCC(C1OCC(CO)O)Br,063834-60-6,-4.10896923,CCCC1CCCC(Br)C1OCC(O)CO
4759,B-10216,1-methyl-5-[(methyl-(1-phenylpropan-2-yl)amino)methyl]-2-phenyl-4-propan-2-ylpyrazol-3-one,GNUXVOXXWGNPIV-UHFFFAOYSA-N,CC(N(CC1C(C(C)C)C(=O)N(N1C)C1CCCCC1)C)CC1CCCCC1,022881-35-2,-5.067751258,CC(C)C1C(=O)N(C2CCCCC2)N(C)C1CN(C)C(C)CC1CCCCC1
4760,B-10218,2-(2-sulfosulfanylethylamino)ethylbenzene,OPXLJUFZIAHIOA-UHFFFAOYSA-N,OS(=O)(=O)SCCNCCC1CCCCC1,000953-22-0,-0.50928063,O=S(=O)(O)SCCNCCC1CCCCC1
4761,B-10219,3-(4-methylpiperazin-1-yl)propyl pyrido[3.2-b][1.4]benzothiazine-10-carboxylate,PFYTUXBMXIBUQI-UHFFFAOYSA-N,CN1CCN(CC1)CCCOC(=O)N1C2CCCCC2SC2C1NCCC2,063885-82-5,-5.457789275,CN1CCN(CCCOC(=O)N2C3CCCCC3SC3CCCNC32)CC1
4762,B-10220,1.1-dioxo-2-prop-2-ynyl-4H-benzo[e]thiazin-3-one,CTZKUHWIUDBFRC-UHFFFAOYSA-N,C#CCN1C(=O)CC2C(S1(=O)=O)CCCC2,031848-19-8,-1.495902618,C#CCN1C(=O)CC2CCCCC2S1(=O)=O
4763,B-10221,2.5-dihydroxy-3.6-di(phenyl)cyclohexa-2.5-diene-1.4-dione,HZKFHDXTSAYOSN-UHFFFAOYSA-N,OC1=C(C2CCCCC2)C(=O)C(=C(C1=O)C1CCCCC1)O,000548-59-4,-3.390267011,O=C1C(O)=C(C2CCCCC2)C(=O)C(O)=C1C1CCCCC1
4764,B-10222,ethyl 6-methyl-2-(2-morpholin-4-ylethoxy)-3-propan-2-ylbenzoate,DUTKSCXDHLBQRC-UHFFFAOYSA-N,CCOC(=O)C1C(C)CCC(C1OCCN1CCOCC1)C(C)C,052073-28-6,-3.809616685,CCOC(=O)C1C(C)CCC(C(C)C)C1OCCN1CCOCC1
4765,B-10224,(NZ)-N-(2.3.4-trimethoxy-5.7.8.9-tetrahydrobenzo[7]annulen-6-ylidene)hydroxylamine,RCAKSFBHTACZEL-GDNBJRDFSA-N,O/N=C\1/CCCC2C(C1)C(OC)C(C(C2)OC)OC,050823-55-7,-2.093338193,COC1CC2CCCC(=NO)CC2C(OC)C1OC
4766,B-10225,methyl N-(1.2.3-trimethoxy-6.7.8.9-tetrahydro-5H-benzo[7]annulen-8-yl)carbamate,BNPWEZZZLIFSAA-UHFFFAOYSA-N,COC(=O)NC1CCCC2C(C1)C(OC)C(C(C2)OC)OC,050823-57-9,-3.326114111,COC(=O)NC1CCCC2CC(OC)C(OC)C(OC)C2C1
4767,B-10226,[(R)-cyano-[3-(phenoxy)phenyl]methyl] (1R.3S)-3-(2.2-dibromoethenyl)-2.2-dimethylcyclopropane-1-carboxylate,OWZREIFADZCYQD-HBFSDRIKSA-N,N#C[C@@H](C1CCCC(C1)OC1CCCCC1)OC(=O)[C@@H]1[C@H](C1(C)C)C=C(Br)Br,064363-97-9,-8.399999664,CC1(C)C(C=C(Br)Br)C1C(=O)OC(C#N)C1CCCC(OC2CCCCC2)C1
4768,B-10227,3-(2-diethylaminoethyl)-3-phenylpiperidine-2.6-dione,BFMBKRQFMIILCH-UHFFFAOYSA-N,CCN(CCC1(CCC(=O)NC1=O)C1CCCCC1)CC,112924-18-2,-2.956327169,CCN(CC)CCC1(C2CCCCC2)CCC(=O)NC1=O
4769,B-10228,ethyl 1-[2-(4-aminophenyl)ethyl]-4-phenylpiperidine-4-carboxylate,LKYQLAWMNBFNJT-UHFFFAOYSA-N,CCOC(=O)C1(CCN(CC1)CCC1CCC(CC1)N)C1CCCCC1,000144-14-9,-4.033115835,CCOC(=O)C1(C2CCCCC2)CCN(CCC2CCC(N)CC2)CC1
4770,B-10229,6-tert-butyl-3-(4.5-dihydro-1H-imidazol-2-ylmethyl)-2.4-dimethylphenol,WYWIFABBXFUGLM-UHFFFAOYSA-N,CC1CC(C(C(C1CC1=NCCN1)C)O)C(C)(C)C,001491-59-4,-5.278571852,CC1CC(C(C)(C)C)C(O)C(C)C1CC1=NCCN1
4771,B-10232,4-methoxy-N-(2-propyl-3.4-dihydro-1H-isoquinolin-5-yl)benzamide,HOGNMZSUBOLTHT-UHFFFAOYSA-N,CCCN1CCC2C(C1)CCCC2NC(=O)C1CCC(CC1)OC,037481-46-2,-4.268074939,CCCN1CCC2C(CCCC2NC(=O)C2CCC(OC)CC2)C1
4772,B-10233,2-(2.6-dimethylphenyl)ethylurea,PIMJYOORDYDRBD-UHFFFAOYSA-N,NC(=O)NCCC1C(C)CCCC1C,017291-84-8,-2.485933789,CC1CCCC(C)C1CCNC(N)=O
4773,B-10234,(E)-3-(3.4-dichlorophenyl)prop-2-enoic acid,RRLUFPHCTSFKNR-DUXPYHPUSA-N,OC(=O)/C=C/C1CCC(C(C1)Cl)Cl,001202-39-7,-3.25736854,O=C(O)C=CC1CCC(Cl)C(Cl)C1
4774,B-10235,2-[4-(4-chlorobenzoyl)phenoxy]-2-methylpropanoic acid,MQOBSOSZFYZQOK-UHFFFAOYSA-N,ClC1CCC(CC1)C(=O)C1CCC(CC1)OC(C(=O)O)(C)C,042017-89-0,-4.54393589,CC(C)(OC1CCC(C(=O)C2CCC(Cl)CC2)CC1)C(=O)O
4775,B-10236,4-ethoxy-2-methyl-5-morpholin-4-ylpyridazin-3-one,URJQOOISAKEBKW-UHFFFAOYSA-N,CCOC1C(CNN(C1=O)C)N1CCOCC1,038957-41-4,0.621102693,CCOC1C(=O)N(C)NCC1N1CCOCC1
4776,B-10237,4-Hydroxy-3.5-diiodobenzoic acid,XREKTVACBXQCSB-UHFFFAOYSA-N,OC(=O)C1CC(I)C(C(C1)I)O,000618-76-8,-4.20215854,O=C(O)C1CC(I)C(O)C(I)C1
4777,B-10238,2-(5-methoxy-1H-indol-3-yl)ethanamine,JTEJPPKMYBDEMY-UHFFFAOYSA-N,NCCC1C[NH]C2C1CC(OC)CC2,000608-07-1,-1.247099831,COC1CCC2NCC(CCN)C2C1
4778,B-10239,(1R.9R.10R)-17-[2-(3.4-dimethoxyphenyl)ethyl]-4-methoxy-17-azatetracyclo[7.5.3.01.10.02.7]heptadeca-2(7).3.5-triene,XMRKEVYDRNKBOR-CAKYRVLISA-N,COC1CCC2C(C1)[C@]13CCCC[C@H]3[C@@H](C2)N(CC1)CCC1CCC(C(C1)OC)OC,063690-30-2,-6.038293716,COC1CCC2CC3C4CCCCC4(CCN3CCC3CCC(OC)C(OC)C3)C2C1
4779,B-10241,4-hydroxy-1-(2-phenylethyl)piperidine-4-carbonitrile,XIUVZQCJSZGEJF-UHFFFAOYSA-N,N#CC1(O)CCN(CC1)CCC1CCCCC1,023804-59-3,-1.44114863,N#CC1(O)CCN(CCC2CCCCC2)CC1
4780,B-10243,2-[4-(2-methylprop-2-enylamino)phenyl]propanoic acid,FPHLBGOJWPEVME-UHFFFAOYSA-N,CC(=C)CNC1CCC(CC1)C(C(=O)O)C,039718-89-3,-2.854576466,C=C(C)CNC1CCC(C(C)C(=O)O)CC1
4781,B-10244,N-(2.2-dichloro-1-hydroxyethyl)-4-fluorobenzamide,WRQDGPXEQMJEKS-UHFFFAOYSA-N,OC(C(Cl)Cl)NC(=O)C1CCC(CC1)F,001208-18-0,-1.714877983,O=C(NC(O)C(Cl)Cl)C1CCC(F)CC1
4782,B-10245,propan-2-yl 2-[4-(4-chlorobenzoyl)phenoxy]-2-methylpropanoate,YMTINGFKWWXKFG-UHFFFAOYSA-N,CC(OC(=O)C(OC1CCC(CC1)C(=O)C1CCC(CC1)Cl)(C)C)C,049562-28-9,-5.9358196,CC(C)OC(=O)C(C)(C)OC1CCC(C(=O)C2CCC(Cl)CC2)CC1
4783,B-10246,N-(5-nitro-1.3-thiazol-2-yl)thiophene-2-carboxamide,ZLOXYEZYWCTXHU-UHFFFAOYSA-N,O=C(C1CCCS1)NC1NCC(S1)[N+](=O)[O-],003810-35-3,-4.738420721,O=C(NC1NCC([N+](=O)[O-])S1)C1CCCS1
4784,B-10247,3-(2-amino-1-hydroxyethyl)phenol,LRCXRAABFLIVAI-UHFFFAOYSA-N,NCC(C1CCCC(C1)O)O,013026-50-1,0.8147951,NCC(O)C1CCCC(O)C1
4785,B-10248,2-(4-chlorophenyl)-1-[4-(2-diethylaminoethoxy)phenyl]-1-(4-methylphenyl)ethanol,SYHDSBBKRLVLFF-UHFFFAOYSA-N,CCN(CCOC1CCC(CC1)C(C1CCC(CC1)C)(CC1CCC(CC1)Cl)O)CC,000078-41-1,-7.112180049,CCN(CC)CCOC1CCC(C(O)(CC2CCC(Cl)CC2)C2CCC(C)CC2)CC1
4786,B-10249,3-(4-chlorophenyl)prop-2-enoic acid,GXLIFJYFGMHYDY-ZZXKWVIFSA-N,OC(=O)/C=C/C1CCC(CC1)Cl,001615-02-7,-2.457368476,O=C(O)C=CC1CCC(Cl)CC1
4787,B-10250,4-dimethylamino-2-(2-dimethylaminoethyl)-2-phenylbutanamide,GAMSVHKCGRVPPR-UHFFFAOYSA-N,CN(CCC(C1CCCCC1)(C(=O)N)CCN(C)C)C,003120-59-0,-1.91678595,CN(C)CCC(CCN(C)C)(C(N)=O)C1CCCCC1
4788,B-10251,2.6-dibutoxy-N-methylpyridine-4-carbohydrazide,PYTCKRXHAISOQN-UHFFFAOYSA-N,CCCCOC1NC(OCCCC)CC(C1)C(=O)N(N)C,057803-55-1,-3.92756007,CCCCOC1CC(C(=O)N(C)N)CC(OCCCC)N1
4789,B-10253,2-[8-(3-phenothiazin-10-ylpropyl)-3.8-diazabicyclo[3.2.1]octan-3-yl]ethanol,RFCPBHVDIXXSGT-UHFFFAOYSA-N,OCCN1CC2CCC(C1)N2CCCN1C2CCCCC2SC2C1CCCC2,006884-54-4,-5.510858027,OCCN1CC2CCC(C1)N2CCCN1C2CCCCC2SC2CCCCC21
4790,B-10254,(4S)-11-hydroxy-10-methoxy-5-methylspiro[5-azatricyclo[6.3.1.04.12]dodeca-1(12).8.10-triene-2.4&apos-cyclohexa-2.5-diene]-1&apos-one,PNJUPRNTSWJWAX-ZDUSSCGKSA-N,COC1CC2CCN([C@@H]3C2C(C1O)C1(C=CC(=O)C=C1)C3)C,006808-72-6,-2.976344137,COC1CC2CCN(C)C3CC4(C=CC(=O)C=C4)C(C1O)C23
4791,B-10255,3-(2-fluorophenoxy)propane-1.2-diol,SJNWVWZUCJZLGK-UHFFFAOYSA-N,OCC(COC1CCCCC1F)O,000399-28-0,-1.123809679,OCC(O)COC1CCCCC1F
4792,B-10258,1-(4-aminophenyl)-2-(butan-2-ylamino)ethanol,UWYLQWLJGMLJQF-UHFFFAOYSA-N,CCC(NCC(C1CCC(CC1)N)O)C,054063-25-1,-0.35161994,CCC(C)NCC(O)C1CCC(N)CC1
4793,B-10259,[4-(phenylmethyl)phenyl] carbamate,ZBJBRUSGEJORQL-UHFFFAOYSA-N,NC(=O)OC1CCC(CC1)CC1CCCCC1,000101-71-3,-3.776630866,NC(=O)OC1CCC(CC2CCCCC2)CC1
4794,B-10260,2-(hydroxymethyl)-2-[(3-methylphenoxy)methyl]propane-1.3-diol,NNWSPTNNCFFSLD-UHFFFAOYSA-N,OCC(COC1CCCC(C1)C)(CO)CO,064049-36-1,-2.121634705,CC1CCCC(OCC(CO)(CO)CO)C1
4795,B-10261,2-(3-methyl-3.8-diazabicyclo[3.2.1]octan-8-yl)ethyl 4-aminobenzoate,SYVNKOFCGRDUIF-UHFFFAOYSA-N,CN1CC2CCC(C1)N2CCOC(=O)C1CCC(CC1)N,063978-09-6,-1.424040514,CN1CC2CCC(C1)N2CCOC(=O)C1CCC(N)CC1
4796,B-10264,4-[1-hydroxy-2-(propan-2-ylamino)ethyl]phenol,MPCPSVWSWKWJLO-UHFFFAOYSA-N,OC(C1CCC(CC1)O)CNC(C)C,007376-66-1,-0.31152481,CC(C)NCC(O)C1CCC(O)CC1
4797,B-10265,3-(2-bromo-6-prop-2-enylphenoxy)propane-1.2-diol,ITDDTOSAIBLWDV-UHFFFAOYSA-N,C=CCC1CCCC(C1OCC(CO)O)Br,063905-18-0,-3.978106445,C=CCC1CCCC(Br)C1OCC(O)CO
4798,B-10266,3-(4-hydroxy-3.5-diiodophenyl)-2-phenylpropanoic acid,IKYIXZSIKOYSLD-UHFFFAOYSA-N,OC(=O)C(C1CCCCC1)CC1CC(I)C(C(C1)I)O,000577-91-3,-5.717848796,O=C(O)C(CC1CC(I)C(O)C(I)C1)C1CCCCC1
4799,B-10269,4-(di(propan-2-yl)amino)-2.2-di(phenyl)butanamide,KNIVGGRCJWRCDV-UHFFFAOYSA-N,CC(N(C(C)C)CCC(C1CCCCC1)(C1CCCCC1)C(=O)N)C,039666-27-8,-5.211488923,CC(C)N(CCC(C(N)=O)(C1CCCCC1)C1CCCCC1)C(C)C
4800,B-10270,2-chloro-N-(2-ethyl-6-methylphenyl)-N-[(2R)-1-methoxypropan-2-yl]acetamide,WVQBLGZPHOPPFO-GFCCVEGCSA-N,COC[C@H](N(C1C(C)CCCC1CC)C(=O)CCl)C,178961-20-1,-2.73,CCC1CCCC(C)C1N(C(=O)CCl)C(C)COC
4801,B-10272,3-(2-phenyl-1.3-benzothiazol-5-yl)propanoic acid,NKOLMUVZDOHNNB-UHFFFAOYSA-N,OC(=O)CCC1CCC2C(C1)NC(S2)C1CCCCC1,052321-54-7,-4.480575962,O=C(O)CCC1CCC2SC(C3CCCCC3)NC2C1
4802,B-10273,(E)-1-(6-methyl-4.6-diazabicyclo[3.2.1]octan-4-yl)-3-(5-nitrothiophen-2-yl)prop-2-en-1-one,SGMAKYJPZQNTQS-DUXPYHPUSA-N,CN1CC2CC1N(CC2)C(=O)/C=C/C1CCC(S1)[N+](=O)[O-],057269-30-4,-3.064412791,CN1CC2CCN(C(=O)C=CC3CCC([N+](=O)[O-])S3)C1C2
4803,B-10274,methyl (1S.15R.16S.20S)-16-methyl-17-oxa-3.13-diazapentacyclo[11.8.0.02.10.04.9.015.20]henicosa-2(10).4.6.8.18-pentaene-19-carboxylate,GRTOGORTSDXSFK-XJTZBENFSA-N,COC(=O)C1=CO[C@H]([C@@H]2[C@@H]1C[C@@H]1N(C2)CCC2C1[NH]C1C2CCCC1)C,000483-04-5,-3.862860992,COC(=O)C1=COC(C)C2CN3CCC4C5CCCCC5NC4C3CC12
4804,B-10277,2-methyl-3-(phenoxy)propane-1.2-diol,FDXOWEXWCPILKM-UHFFFAOYSA-N,OCC(COC1CCCCC1)(O)C,015895-54-2,-1.310228781,CC(O)(CO)COC1CCCCC1
4805,B-10278,6-(4-Methoxyphenyl)-1.3.5-triazine-2.4-diamine,WBDWTNWLWBQFJU-UHFFFAOYSA-N,COC1CCC(CC1)C1NC(N)NC(N1)N,030354-91-7,-2.086503778,COC1CCC(C2NC(N)NC(N)N2)CC1
4806,B-10279,2-hydroxy-2.2-di(phenyl)acetamide,REQXYFLFNBBIRX-UHFFFAOYSA-N,NC(=O)C(C1CCCCC1)(C1CCCCC1)O,004746-87-6,-1.436927712,NC(=O)C(O)(C1CCCCC1)C1CCCCC1
4807,B-10280,[4-(bis(2-bromoethyl)amino)phenyl] 4-methylbenzoate,HETTWOPRDUZXMX-UHFFFAOYSA-N,BrCCN(C1CCC(CC1)OC(=O)C1CCC(CC1)C)CCBr,022954-16-1,-7.060267843,CC1CCC(C(=O)OC2CCC(N(CCBr)CCBr)CC2)CC1
4808,B-10281,(E)-1-phenyl-5-(4-pyridin-2-ylpiperazin-1-yl)pent-1-en-3-one,VXCUXAQPTKJOCT-MDZDMXLPSA-N,O=C(/C=C/C1CCCCC1)CCN1CCN(CC1)C1CCCCN1,034959-90-5,-3.017119836,O=C(C=CC1CCCCC1)CCN1CCN(C2CCCCN2)CC1
4809,B-10282,5-hydroxy-3-(4-hydroxyphenyl)-7-methoxychromen-4-one,KQMVAGISDHMXJJ-UHFFFAOYSA-N,COC1CC(O)C2C(C1)OCC(C2=O)C1CCC(CC1)O,000552-59-0,-4.48138473,COC1CC(O)C2C(=O)C(C3CCC(O)CC3)COC2C1
4810,B-10283,[(R)-cyano-[4-fluoro-3-(phenoxy)phenyl]methyl] (1S.3R)-3-(2.2-dichloroethenyl)-2.2-dimethylcyclopropane-1-carboxylate,QQODLKZGRKWIFG-ZAAXVRCTSA-N,N#C[C@@H](C1CCC(C(C1)OC1CCCCC1)F)OC(=O)[C@H]1[C@@H](C1(C)C)C=C(Cl)Cl,1820573-27-0,-7.340000209,CC1(C)C(C=C(Cl)Cl)C1C(=O)OC(C#N)C1CCC(F)C(OC2CCCCC2)C1
4811,B-10285,4-hydroxy-6-methylpyran-2-one,NSYSSMYQPLSPOD-UHFFFAOYSA-N,OC1CC(C)OC(=O)C1,000675-10-5,0.376368285,CC1CC(O)CC(=O)O1
4812,B-10286,1-[4-(2.3-dihydroxypropoxy)phenyl]propan-1-one,ALFSJNBVYSQVGG-UHFFFAOYSA-N,OCC(COC1CCC(CC1)C(=O)CC)O,002680-51-5,-1.717275616,CCC(=O)C1CCC(OCC(O)CO)CC1
4813,B-10287,2-[2-(3-fluorophenyl)-1.3-benzoxazol-5-yl]propanoic acid,QPJRVPQZLARJGF-UHFFFAOYSA-N,OC(=O)C(C1CCC2C(C1)NC(O2)C1CCCC(C1)F)C,051234-75-4,-3.905033823,CC(C(=O)O)C1CCC2OC(C3CCCC(F)C3)NC2C1
4814,B-10288,3-[bis(2-chloroethyl)amino]-N-ethyl-4-methylbenzamide,MEGRETRVTYTRSM-UHFFFAOYSA-N,ClCCN(C1CC(CCC1C)C(=O)NCC)CCCl,021447-85-8,-4.750985579,CCNC(=O)C1CCC(C)C(N(CCCl)CCCl)C1
4815,B-10289,5-diethylamino-1-ethyl-6-methyl-3-phenylpyrimidine-2.4-dione,MZMHSWCIXSDEPD-UHFFFAOYSA-N,CCN(C1C(C)N(CC)C(=O)N(C1=O)C1CCCCC1)CC,033872-85-4,-2.916835988,CCN(CC)C1C(=O)N(C2CCCCC2)C(=O)N(CC)C1C
4816,B-10290,spiro[pyrrolidine-3.2&apos-tricyclo[9.4.0.03.8]pentadeca-1(15).3.5.7.11.13-hexaene]-2.5-dione,SWXGTCKIGMOVFI-UHFFFAOYSA-N,O=C1NC(=O)C2(C1)C1CCCCC1CCC1C2CCCC1,001034-46-4,-5.266894631,O=C1CC2(C(=O)N1)C1CCCCC1CCC1CCCCC12
4817,B-10293,methyl 2-[1-(4-chlorobenzoyl)-5-methoxy-2-methylindol-3-yl]acetate,OKHORWCUMZIORR-UHFFFAOYSA-N,COC(=O)CC1C2CC(OC)CCC2N(C1C)C(=O)C1CCC(CC1)Cl,001601-18-9,-6.077568842,COC(=O)CC1C2CC(OC)CCC2N(C(=O)C2CCC(Cl)CC2)C1C
4818,B-10294,5-methyl-5-phenylimidazolidine-2.4-dione,JNGWGQUYLVSFND-UHFFFAOYSA-N,O=C1NC(=O)NC1(C)C1CCCCC1,006843-49-8,-1.459671144,CC1(C2CCCCC2)NC(=O)NC1=O
4819,B-10297,6.7-dimethoxy-2-methyl-1-[2-(4-nitrophenyl)ethyl]-3.4-dihydro-1H-isoquinoline,AWDKLHCXDUACLM-UHFFFAOYSA-N,COC1CC2C(CC1OC)CCN(C2CCC1CCC(CC1)[N+](=O)[O-])C,063937-57-5,-4.629239045,COC1CC2CCN(C)C(CCC3CCC([N+](=O)[O-])CC3)C2CC1OC
4820,B-10298,4-Amino-3.5-diiodobenzoic acid,WXTVPMWCUMEVSZ-UHFFFAOYSA-N,OC(=O)C1CC(I)C(C(C1)I)N,002122-61-4,-4.846362796,NC1C(I)CC(C(=O)O)CC1I
4821,B-10299,4-chloroacridin-9-amine,NSXDSAVBBBKTAM-UHFFFAOYSA-N,ClC1CCCC2C1NC1CCCCC1C2N,023250-40-0,-4.580351812,NC1C2CCCCC2NC2C(Cl)CCCC12
4822,B-10300,5.5-di(phenyl)imidazolidine-2.4-dithione,IPDQDGCZABYZKF-UHFFFAOYSA-N,S=C1NC(=S)NC1(C1CCCCC1)C1CCCCC1,002032-13-5,-2.71119681,S=C1NC(=S)C(C2CCCCC2)(C2CCCCC2)N1
4823,B-10301,8-Hydroxyquinoline-5-sulfonic acid,LGDFHDKSYGVKDC-UHFFFAOYSA-N,OC1CCC(C2C1NCCC2)S(=O)(=O)O,039289-41-3,-0.354430976,O=S(=O)(O)C1CCC(O)C2NCCCC21
4824,B-10302,2-[4-(3-benzo[b][1]benzazepin-11-ylpropyl)piperazin-1-yl]ethanol,YNZFUWZUGRBMHL-UHFFFAOYSA-N,OCCN1CCN(CC1)CCCN1C2CCCCC2C=CC2C1CCCC2,000315-72-0,-3.574007374,OCCN1CCN(CCCN2C3CCCCC3C=CC3CCCCC32)CC1
4825,B-10303,methyl 3-(4-hydroxy-3-methoxyphenyl)prop-2-enoate,AUJXJFHANFIVKH-GQCTYLIASA-N,COC(=O)/C=C/C1CCC(C(C1)OC)O,002309-07-1,-2.172379806,COC(=O)C=CC1CCC(O)C(OC)C1
4826,B-10305,[1-[4-(4-fluorophenyl)-4-oxobutyl]piperidin-4-yl] N-propan-2-ylcarbamate,HJSFDYCHYVGVDC-UHFFFAOYSA-N,CC(NC(=O)OC1CCN(CC1)CCCC(=O)C1CCC(CC1)F)C,020977-50-8,-3.635050194,CC(C)NC(=O)OC1CCN(CCCC(=O)C2CCC(F)CC2)CC1
4827,B-10306,2-chloro-N-(5-chloro-1.3-benzoxazol-2-yl)acetamide,DDBLLZWYBUXMDY-UHFFFAOYSA-N,ClCC(=O)NC1NC2C(O1)CCC(C2)Cl,064037-18-9,-3.265419034,O=C(CCl)NC1NC2CC(Cl)CCC2O1
4828,B-10308,1-(2.4-dichlorophenyl)-2-imidazol-1-ylethanol,UKVLTPAGJIYSGN-UHFFFAOYSA-N,ClC1CCC(C(C1)Cl)C(CN1CNCC1)O,024155-42-8,-3.257837397,OC(CN1CCNC1)C1CCC(Cl)CC1Cl
4829,B-10309,2-ethyl-2-naphthalen-1-yl-4-piperidin-1-ylbutanamide,QNZBHXVTDNAOEC-UHFFFAOYSA-N,CCC(C1CCCC2C1CCCC2)(C(=O)N)CCN1CCCCC1,001505-97-1,-5.102931893,CCC(CCN1CCCCC1)(C(N)=O)C1CCCC2CCCCC21
4830,B-10310,1-[4.4-bis(4-fluorophenyl)butyl]-4-[4-chloro-3-(trifluoromethyl)phenyl]piperidin-4-ol,MDLAAYDRRZXJIF-UHFFFAOYSA-N,FC1CCC(CC1)C(C1CCC(CC1)F)CCCN1CCC(CC1)(O)C1CCC(C(C1)C(F)(F)F)Cl,026864-56-2,-8.385256674,OC1(C2CCC(Cl)C(C(F)(F)F)C2)CCN(CCCC(C2CCC(F)CC2)C2CCC(F)CC2)CC1
4831,B-10313,1-phenyl-3-(8-propanoyl-3.8-diazabicyclo[3.2.1]octan-3-yl)propan-1-one,JFGILDJCNBOAGG-UHFFFAOYSA-N,CCC(=O)N1C2CCC1CN(C2)CCC(=O)C1CCCCC1,063978-11-0,-2.796461597,CCC(=O)N1C2CCC1CN(CCC(=O)C1CCCCC1)C2
4832,B-10314,(3-methyl-3.8-diazabicyclo[3.2.1]octan-8-yl)-(2-nitrophenyl)methanone,MVHSJESGFPGIJJ-UHFFFAOYSA-N,CN1CC2CCC(C1)N2C(=O)C1CCCCC1[N+](=O)[O-],027266-01-9,-2.325875495,CN1CC2CCC(C1)N2C(=O)C1CCCCC1[N+](=O)[O-]
4833,B-10315,3.4.5-trimethoxy-N.N-di(propan-2-yl)benzamide,OETBURNRZVFMMY-UHFFFAOYSA-N,COC1CC(CC(C1OC)OC)C(=O)N(C(C)C)C(C)C,063886-93-1,-3.110544134,COC1CC(C(=O)N(C(C)C)C(C)C)CC(OC)C1OC
4834,B-10316,2-(4-Acetylphenoxy)-2-methylpropanoic acid,CDUYSGJRDZEJPK-UHFFFAOYSA-N,CC(=O)C1CCC(CC1)OC(C(=O)O)(C)C,052179-07-4,-2.032955028,CC(=O)C1CCC(OC(C)(C)C(=O)O)CC1
4835,B-10317,2-(2-ethoxyphenyl)-3a.4.5.6.7.7a-hexahydro-4.7-epoxyisoindole-1.3-dione,QKLVXOYMOLDCNG-UHFFFAOYSA-N,CCOC1CCCCC1N1C(=O)C2C(C1=O)C1OC2CC1,020707-41-9,-1.215320251,CCOC1CCCCC1N1C(=O)C2C3CCC(O3)C2C1=O
4836,B-10318,2-[2-(4-fluorophenyl)-1.3-benzoxazol-5-yl]propanoic acid,ARPYQKTVRGFPIS-UHFFFAOYSA-N,OC(=O)C(C1CCC2C(C1)NC(O2)C1CCC(CC1)F)C,051234-27-6,-3.905033823,CC(C(=O)O)C1CCC2OC(C3CCC(F)CC3)NC2C1
4837,B-10319,1.3-bis(2-methylphenyl)thiourea,KWPNNZKRAQDVPZ-UHFFFAOYSA-N,S=C(NC1CCCCC1C)NC1CCCCC1C,000137-97-3,-4.749897279,CC1CCCCC1NC(=S)NC1CCCCC1C
4838,B-10323,[3.7-bis(dimethylamino)phenothiazin-10-yl]-phenylmethanone,ZKURGBYDCVNWKH-UHFFFAOYSA-N,O=C(N1C2CCC(CC2SC2C1CCC(C2)N(C)C)N(C)C)C1CCCCC1,001249-97-4,-6.876196657,CN(C)C1CCC2C(C1)SC1CC(N(C)C)CCC1N2C(=O)C1CCCCC1
4839,B-10324,[(1-methyl-2-oxoindol-3-ylidene)amino]thiourea,DLGSOJOOYHWROO-WQLSENKSSA-N,NC(=S)N/N=C\1/C2CCCCC2N(C1=O)C,001910-68-5,-3.007624316,CN1C(=O)C(=NNC(N)=S)C2CCCCC21
4840,B-10326,3.3-dichloro-2-(2.4-dichlorophenyl)oxirane-2-carboxamide,KICUGLVMRAJYPD-UHFFFAOYSA-N,ClC1CCC(C(C1)Cl)C1(OC1(Cl)Cl)C(=O)N,024119-95-7,-3.730297662,NC(=O)C1(C2CCC(Cl)CC2Cl)OC1(Cl)Cl
4841,B-10327,6-(2-sulfosulfanylethylamino)hexylbenzene,CHDCOQRRIRGECX-UHFFFAOYSA-N,OS(=O)(=O)SCCNCCCCCCC1CCCCC1,027976-22-3,-2.784854038,O=S(=O)(O)SCCNCCCCCCC1CCCCC1
4842,B-10328,3-(4-Bromophenoxy)propane-1.2-diol,FZGZDDRZAZBANV-UHFFFAOYSA-N,OCC(COC1CCC(CC1)Br)O,063834-59-3,-2.496876922,OCC(O)COC1CCC(Br)CC1
4843,B-10329,(E)-3-(4-aminophenyl)prop-2-enoic acid,JOLPMPPNHIACPD-ZZXKWVIFSA-N,OC(=O)/C=C/C1CCC(CC1)N,002393-18-2,-0.982207335,NC1CCC(C=CC(=O)O)CC1
4844,B-10330,4-amino-N-pyridin-2-ylbenzamide,GBYNWLIJDNPFRH-UHFFFAOYSA-N,NC1CCC(CC1)C(=O)NC1CCCCN1,007467-42-7,-1.743407965,NC1CCC(C(=O)NC2CCCCN2)CC1
4845,B-10332,7-azatricyclo[9.4.0.03.8]pentadeca-1(15).3(8).4.6.11.13-hexaene-2-carboxamide,OPQULRTWFOXNTE-UHFFFAOYSA-N,NC(=O)C1C2CCCCC2CCC2C1CCCN2,033318-24-0,-2.434106206,NC(=O)C1C2CCCCC2CCC2NCCCC21
4846,B-10333,3-[2-[4-(6-fluoro-1.2-benzoxazol-3-yl)piperidin-1-yl]ethyl]-2-methyl-6.7.8.9-tetrahydropyrido[2.1-b]pyrimidin-4-one,RAPZEAPATHNIPO-UHFFFAOYSA-N,FC1CCC2C(C1)ONC2C1CCN(CC1)CCC1C(C)NC2N(C1=O)CCCC2,106266-06-2,-5.279254326,CC1NC2CCCCN2C(=O)C1CCN1CCC(C2NOC3CC(F)CCC32)CC1
4847,B-10334,methyl 2-[2-(2-diethylaminoethoxy)-2-oxoethoxy]-6-methyl-3-propan-2-ylbenzoate,KLSLAJCPPHOEAM-UHFFFAOYSA-N,CCN(CCOC(=O)COC1C(CCC(C1C(=O)OC)C)C(C)C)CC,052073-15-1,-4.386760474,CCN(CC)CCOC(=O)COC1C(C(C)C)CCC(C)C1C(=O)OC
4848,B-10336,1-[(1R.9R.10R)-4-hydroxy-17-azatetracyclo[7.5.3.01.10.02.7]heptadeca-2(7).3.5-trien-17-yl]propan-2-one,JXCWCFNXJLYNDP-QXAKKESOSA-N,CC(=O)CN1CC[C@@]23[C@H]([C@H]1CC1C3CC(CC1)O)CCCC2,063867-92-5,-2.442848348,CC(=O)CN1CCC23CCCCC2C1CC1CCC(O)CC13
4849,B-10337,(1R)-1-(2-fluorophenyl)-1-(4-fluorophenyl)-2-(1.2.4-triazol-1-yl)ethanol,JWUCHKBSVLQQCO-MRXNPFEDSA-N,FC1CCC(CC1)[C@@](C1CCCCC1F)(CN1CNCN1)O,586965-69-7,-3.3699999,OC(CN1CNCN1)(C1CCC(F)CC1)C1CCCCC1F
4850,B-10338,(3S.5R)-3-amino-5-methyl-1-phenylpyrrolidin-2-one,XGXDBLPZUSKNSA-SCZZXKLOSA-N,C[C@@H]1C[C@@H](C(=O)N1C1CCCCC1)N,004915-41-7,-1.083415882,CC1CC(N)C(=O)N1C1CCCCC1
4851,B-10339,2-(4-Butoxyphenyl)acetamide,RSMPEQBSFXBQMJ-UHFFFAOYSA-N,CCCCOC1CCC(CC1)CC(=O)N,003413-59-0,-2.506310194,CCCCOC1CCC(CC(N)=O)CC1
4852,B-10341,4-amino-8-chloro-1-phenyl-3H-1.5-benzodiazepin-2-one,DNEJXIPLCRHMSL-UHFFFAOYSA-N,ClC1CCC2C(C1)N(C(=O)CC(=N2)N)C1CCCCC1,036985-33-8,-2.225508425,NC1=NC2CCC(Cl)CC2N(C2CCCCC2)C(=O)C1
4853,B-10343,3-Aminopyridine-2-carboxylic acid,BOOMHTFCWOJWFO-UHFFFAOYSA-N,OC(=O)C1NCCCC1N,001462-86-8,-0.357802843,NC1CCCNC1C(=O)O
4854,B-10344,1-diethoxyphosphorylsulfanyl-4-nitrobenzene,DSVCXDBXXBVSEB-UHFFFAOYSA-N,CCOP(=O)(SC1CCC(CC1)[N+](=O)[O-])OCC,003270-86-8,-3.472166375,CCOP(=O)(OCC)SC1CCC([N+](=O)[O-])CC1
4855,B-10346,[4-(bis(2-bromoethyl)amino)phenyl] 2-ethylbenzoate,RMHWROMEMLMRSO-UHFFFAOYSA-N,BrCCN(C1CCC(CC1)OC(=O)C1CCCCC1CC)CCBr,022954-13-8,-7.582645756,CCC1CCCCC1C(=O)OC1CCC(N(CCBr)CCBr)CC1