,C_ID,Name,InChIKey,SMILES,CAS,LogS,smiles_canon
3101,B-7875,2-[[5-acetamido-4-(2-bromo-4.6-dinitrophenyl)diazenyl-2-methoxyphenyl]-(2-acetyloxyethyl)amino]ethyl acetate,JSRUDOBCTLPTFO-UHFFFAOYSA-N,CC(=O)NC1=CC(=C(C=C1N=NC2=C(C=C(C=C2Br)[N+](=O)[O-])[N+](=O)[O-])OC)N(CCOC(=O)C)CCOC(=O)C,003618-72-2,-8.080146686,COc1cc(N=Nc2c(Br)cc([N+](=O)[O-])cc2[N+](=O)[O-])c(NC(C)=O)cc1N(CCOC(C)=O)CCOC(C)=O
3102,B-7876,2-(1-amino-4-hydroxy-9.10-dioxoanthracen-2-yl)oxyethyl phenyl carbonate,GLLYQJVICPAIGW-UHFFFAOYSA-N,C1=CC=C(C=C1)OC(=O)OCCOC2=C(C3=C(C(=C2)O)C(=O)C4=CC=CC=C4C3=O)N,028173-59-3,-8.05441614,Nc1c(OCCOC(=O)Oc2ccccc2)cc(O)c2c1C(=O)c1ccccc1C2=O
3103,B-7877,methyl 2-[5-acetamido-4-[(2-bromo-4.6-dinitrophenyl)diazenyl]-2-methoxy-N-(2-methoxy-2-oxoethyl)anilino]acetate,TWMVKFBKKKQSHA-UHFFFAOYSA-N,CC(=O)NC1=CC(=C(C=C1N=NC2=C(C=C(C=C2Br)[N+](=O)[O-])[N+](=O)[O-])OC)N(CC(=O)OC)CC(=O)OC,088938-51-6,-6.663948267,COC(=O)CN(CC(=O)OC)c1cc(NC(C)=O)c(N=Nc2c(Br)cc([N+](=O)[O-])cc2[N+](=O)[O-])cc1OC
3104,B-7878,4-[(4-carbamoylphenyl)diazenyl]-3-hydroxy-N-(2-methoxyphenyl)naphthalene-2-carboxamide,HULNYTPFPARJMG-UHFFFAOYSA-N,COC1=CC=CC=C1NC(=O)C2=CC3=CC=CC=C3C(=C2O)N=NC4=CC=C(C=C4)C(=O)N,036968-27-1,-8.166782656,COc1ccccc1NC(=O)c1cc2ccccc2c(N=Nc2ccc(C(N)=O)cc2)c1O
3105,B-7879,(4Z)-N-(5-chloro-2-methoxyphenyl)-4-[[2-methoxy-5-(phenylcarbamoyl)phenyl]hydrazinylidene]-3-oxonaphthalene-2-carboxamide,RMSOEUVAYBPZEG-GPFIVKHLSA-N,COC1=C(C=C(C=C1)C(=O)NC2=CC=CC=C2)N/N=C\3/C4=CC=CC=C4C=C(C3=O)C(=O)NC5=C(C=CC(=C5)Cl)OC,067990-05-0,-8.184412194,COc1ccc(C(=O)Nc2ccccc2)cc1NN=C1C(=O)C(C(=O)Nc2cc(Cl)ccc2OC)=Cc2ccccc21
3106,B-7880,4-[(2.5-dichlorophenyl)diazenyl]-3-hydroxy-N-(2-oxo-1.3-dihydrobenzimidazol-5-yl)naphthalene-2-carboxamide,NAEXAHVLTQKKCY-UHFFFAOYSA-N,C1=CC=C2C(=C1)C=C(C(=C2N=NC3=C(C=CC(=C3)Cl)Cl)O)C(=O)NC4=CC5=C(C=C4)NC(=O)N5,006992-11-6,-7.461798734,O=C(Nc1ccc2[nH]c(=O)[nH]c2c1)c1cc2ccccc2c(N=Nc2cc(Cl)ccc2Cl)c1O
3107,B-7881,2-ethoxy-3-[[4-[2-(2H-tetrazol-5-yl)phenyl]phenyl]methyl]benzimidazole-4-carboxylic acid,HTQMVQVXFRQIKW-UHFFFAOYSA-N,CCOC1=NC2=CC=CC(=C2N1CC3=CC=C(C=C3)C4=CC=CC=C4C5=NNN=N5)C(=O)O,139481-59-7,-6.497778833,CCOc1nc2cccc(C(=O)O)c2n1Cc1ccc(-c2ccccc2-c2nn[nH]n2)cc1
3108,B-7882,(4Z)-N-(4-chloro-2.5-dimethoxyphenyl)-4-[[2-methoxy-5-(phenylcarbamoyl)phenyl]hydrazinylidene]-3-oxonaphthalene-2-carboxamide,GBDJNEJIVMFTOJ-ZREQDNEKSA-N,COC1=C(C=C(C=C1)C(=O)NC2=CC=CC=C2)N/N=C\3/C4=CC=CC=C4C=C(C3=O)C(=O)NC5=CC(=C(C=C5OC)Cl)OC,005280-68-2,-7.846559273,COc1cc(NC(=O)C2=Cc3ccccc3C(=NNc3cc(C(=O)Nc4ccccc4)ccc3OC)C2=O)c(OC)cc1Cl
3109,B-7883,2.5-dimethyl-4-[2-methylsulfonyl-4-(trifluoromethyl)benzoyl]-1H-pyrazol-3-one,CZRVDACSCJKRFL-UHFFFAOYSA-N,CC1=C(C(=O)N(N1)C)C(=O)C2=C(C=C(C=C2)C(F)(F)F)S(=O)(=O)C,365400-11-9,-0.719617736,Cc1[nH]n(C)c(=O)c1C(=O)c1ccc(C(F)(F)F)cc1S(C)(=O)=O
3110,B-7884,2-[2-chloro-4-[3-chloro-4-[1-[(2-methoxyphenyl)amino]-1.3-dioxobutan-2-yl]diazenylphenyl]phenyl]diazenyl-N-(2-methoxyphenyl)-3-oxobutanamide,VTGOEJALMFECDQ-UHFFFAOYSA-N,CC(=O)C(C(=O)NC1=CC=CC=C1OC)N=NC2=C(C=C(C=C2)C3=CC(=C(C=C3)N=NC(C(=O)C)C(=O)NC4=CC=CC=C4OC)Cl)Cl,004531-49-1,-8.423594682,COc1ccccc1NC(=O)C(N=Nc1ccc(-c2ccc(N=NC(C(C)=O)C(=O)Nc3ccccc3OC)c(Cl)c2)cc1Cl)C(C)=O
3111,B-7885,1-[bis(4-diethylaminophenyl)methyl]naphthalene-2.7-disulfonic acid,BCYNJKQQXIODNZ-UHFFFAOYSA-N,CCN(CC)C1=CC=C(C=C1)C(C2=CC=C(C=C2)N(CC)CC)C3=C(C=CC4=C3C=C(C=C4)S(=O)(=O)O)S(=O)(=O)O,068345-20-0,-0.698464651,CCN(CC)c1ccc(C(c2ccc(N(CC)CC)cc2)c2c(S(=O)(=O)O)ccc3ccc(S(=O)(=O)O)cc23)cc1
3112,B-7886,N-cyclohexyl-3-[[4-[[3-(cyclohexylsulfamoyl)-2.4.6-trimethylphenyl]amino]-9.10-dioxoanthracen-1-yl]amino]-2.4.6-trimethylbenzenesulfonamide,AYYCRXDSCYPSRP-UHFFFAOYSA-N,CC1=CC(=C(C(=C1NC2=C3C(=C(C=C2)NC4=C(C(=C(C=C4C)C)S(=O)(=O)NC5CCCCC5)C)C(=O)C6=CC=CC=C6C3=O)C)S(=O)(=O)NC7CCCCC7)C,023552-74-1,-4.818693657,Cc1cc(C)c(S(=O)(=O)NC2CCCCC2)c(C)c1Nc1ccc(Nc2c(C)cc(C)c(S(=O)(=O)NC3CCCCC3)c2C)c2c1C(=O)c1ccccc1C2=O
3113,B-7887,2-[2-ethoxy-5-(4-ethylpiperazin-1-yl)sulfonylphenyl]-5-methyl-7-propyl-1H-imidazo[5.1-f][1.2.4]triazin-4-one,SECKRCOLJRRGGV-UHFFFAOYSA-N,CCCC1=NC(=C2N1NC(=NC2=O)C3=C(C=CC(=C3)S(=O)(=O)N4CCN(CC4)CC)OCC)C,224785-90-4,-4.843858622,CCCc1nc(C)c2c(=O)nc(-c3cc(S(=O)(=O)N4CCN(CC)CC4)ccc3OCC)[nH]n12
3114,B-7888,4-[(5-chloro-2-methylphenyl)diazenyl]-N-[4-[[4-[(5-chloro-2-methylphenyl)diazenyl]-3-hydroxynaphthalene-2-carbonyl]amino]-2.5-dimethylphenyl]-3-hydroxynaphthalene-2-carboxamide,RUASBGDJNNJFOJ-UHFFFAOYSA-N,CC1=C(C=C(C=C1)Cl)N=NC2=C(C(=CC3=CC=CC=C32)C(=O)NC4=CC(=C(C=C4C)NC(=O)C5=CC6=CC=CC=C6C(=C5O)N=NC7=C(C=CC(=C7)Cl)C)C)O,079665-24-0,-7.678194264,Cc1ccc(Cl)cc1N=Nc1c(O)c(C(=O)Nc2cc(C)c(NC(=O)c3cc4ccccc4c(N=Nc4cc(Cl)ccc4C)c3O)cc2C)cc2ccccc12
3115,B-7889,3-[4-(3-cyanophenyl)-3-hydroxy-6-oxo-2H-pyrrolo[3.4-c]pyrrol-1-yl]benzonitrile,WAEJKWBHPKBKKZ-UHFFFAOYSA-N,C1=CC(=CC(=C1)C2=C3C(=C(N2)O)C(=NC3=O)C4=CC=CC(=C4)C#N)C#N,084632-50-8,-7.428931453,N#Cc1cccc(C2=NC(=O)c3c(-c4cccc(C#N)c4)[nH]c(O)c32)c1
3116,B-7890,[3-(2-sulfanylacetyl)oxy-2.2-bis[(2-sulfanylacetyl)oxymethyl]propyl] 2-sulfanylacetate,RUDUCNPHDIMQCY-UHFFFAOYSA-N,C(C(=O)OCC(COC(=O)CS)(COC(=O)CS)COC(=O)CS)S,010193-99-4,-2.795289226,O=C(CS)OCC(COC(=O)CS)(COC(=O)CS)COC(=O)CS
3117,B-7891,1-N.1-N.4-N.4-N-tetrakis(2-hydroxyethyl)cyclohexane-1.4-dicarboxamide,RRAOOBQCQCDRKP-UHFFFAOYSA-N,C1CC(CCC1C(=O)N(CCO)CCO)C(=O)N(CCO)CCO,1215841-86-3,-0.372289133,O=C(C1CCC(C(=O)N(CCO)CCO)CC1)N(CCO)CCO
3118,B-7892,N-[9-[(2R.4S.5R)-5-[[bis(4-methoxyphenyl)-phenylmethoxy]methyl]-4-hydroxyoxolan-2-yl]purin-6-yl]benzamide,LPICNYATEWGYHI-WIHCDAFUSA-N,COC1=CC=C(C=C1)C(C2=CC=CC=C2)(C3=CC=C(C=C3)OC)OC[C@@H]4[C@H](C[C@@H](O4)N5C=NC6=C(N=CN=C65)NC(=O)C7=CC=CC=C7)O,064325-78-6,-6.671915918,COc1ccc(C(OCC2OC(n3cnc4c(NC(=O)c5ccccc5)ncnc43)CC2O)(c2ccccc2)c2ccc(OC)cc2)cc1
3119,B-7893,N.N.N'.N'-Tetrakis(2-hydroxyethyl)hexanediamide,OKRNLSUTBJUVKA-UHFFFAOYSA-N,C(CCC(=O)N(CCO)CCO)CC(=O)N(CCO)CCO,006334-25-4,0.278445642,O=C(CCCCC(=O)N(CCO)CCO)N(CCO)CCO
3120,B-7894,2-(4-nitrophenyl)diazenyl-3-oxo-N-(2-oxo-1.3-dihydrobenzimidazol-5-yl)butanamide,HXXOOSWHCMYQQV-UHFFFAOYSA-N,CC(=O)C(C(=O)NC1=CC2=C(C=C1)NC(=O)N2)N=NC3=CC=C(C=C3)[N+](=O)[O-],052846-56-7,-7.525538978,CC(=O)C(N=Nc1ccc([N+](=O)[O-])cc1)C(=O)Nc1ccc2[nH]c(=O)[nH]c2c1
3121,B-7895,2-[[1-(2-methoxyanilino)-1.3-dioxobutan-2-yl]diazenyl]benzoic acid,RDCAJFZYOSLJBZ-UHFFFAOYSA-N,CC(=O)C(C(=O)NC1=CC=CC=C1OC)N=NC2=CC=CC=C2C(=O)O,877670-90-1,-4.228436292,COc1ccccc1NC(=O)C(N=Nc1ccccc1C(=O)O)C(C)=O
3122,B-7896,2-(bis(carboxymethyl)amino)pentanedioic acid,VCVKIIDXVWEWSZ-UHFFFAOYSA-N,C(CC(=O)O)C(C(=O)O)N(CC(=O)O)CC(=O)O,058976-65-1,0.043601164,O=C(O)CCC(C(=O)O)N(CC(=O)O)CC(=O)O
3123,B-7897,(2S.3S.5R)-3-methyl-4.4.7-trioxo-3-(triazol-1-ylmethyl)-4$l^{6}-thia-1-azabicyclo[3.2.0]heptane-2-carboxylic acid,LPQZKKCYTLCDGQ-WEDXCCLWSA-N,C[C@@]1([C@@H](N2[C@H](S1(=O)=O)CC2=O)C(=O)O)CN3C=CN=N3,089786-04-9,-1.838450974,CC1(Cn2ccnn2)C(C(=O)O)N2C(=O)CC2S1(=O)=O
3124,B-7898,2-[[4-(2-chloro-4-methylsulfonylphenyl)diazenyl-3-methylphenyl]-(2-hydroxyethyl)amino]ethanol,KLMFZVQIWHSLOE-UHFFFAOYSA-N,CC1=C(C=CC(=C1)N(CCO)CCO)N=NC2=C(C=C(C=C2)S(=O)(=O)C)Cl,068134-22-5,-7.462506083,Cc1cc(N(CCO)CCO)ccc1N=Nc1ccc(S(C)(=O)=O)cc1Cl
3125,B-7899,4-[2-(2-amino-4-oxo-1.5-dihydropyrrolo[3.2-d]pyrimidin-7-yl)ethyl]benzoic acid,UQYUUJLYGFYTQK-UHFFFAOYSA-N,C1=CC(=CC=C1CCC2=CNC3=C2NC(=NC3=O)N)C(=O)O,137281-39-1,-3.574286998,Nc1nc(=O)c2[nH]cc(CCc3ccc(C(=O)O)cc3)c2[nH]1
3126,B-7900,4-[(1-butyl-5-cyano-6-hydroxy-4-methyl-2-oxopyridin-3-yl)diazenyl]-N-(2-ethylhexyl)benzenesulfonamide,ZGWIHQVDQSMSDT-UHFFFAOYSA-N,CCCCC(CC)CNS(=O)(=O)C1=CC=C(C=C1)N=NC2=C(C(=C(N(C2=O)CCCC)O)C#N)C,055290-62-5,-8.797267541,CCCCC(CC)CNS(=O)(=O)c1ccc(N=Nc2c(C)c(C#N)c(O)n(CCCC)c2=O)cc1
3127,B-7901,2-[2-chloro-4-[3-chloro-4-[1-[(2.4-dimethylphenyl)amino]-1.3-dioxobutan-2-yl]diazenylphenyl]phenyl]diazenyl-N-(2.4-dimethylphenyl)-3-oxobutanamide,IAFBRPFISOTXSO-UHFFFAOYSA-N,CC1=CC(=C(C=C1)NC(=O)C(C(=O)C)N=NC2=C(C=C(C=C2)C3=CC(=C(C=C3)N=NC(C(=O)C)C(=O)NC4=C(C=C(C=C4)C)C)Cl)Cl)C,005102-83-0,-9.292008086,CC(=O)C(N=Nc1ccc(-c2ccc(N=NC(C(C)=O)C(=O)Nc3ccc(C)cc3C)c(Cl)c2)cc1Cl)C(=O)Nc1ccc(C)cc1C
3128,B-7902,N-(4-chloro-2.5-dimethoxyphenyl)-2-[2.5-dimethoxy-4-(phenylsulfamoyl)phenyl]diazenyl-3-oxobutanamide,WNWZKKBGFYKSGA-UHFFFAOYSA-N,CC(=O)C(C(=O)NC1=CC(=C(C=C1OC)Cl)OC)N=NC2=CC(=C(C=C2OC)S(=O)(=O)NC3=CC=CC=C3)OC,012225-18-2,-7.965432711,COc1cc(NC(=O)C(N=Nc2cc(OC)c(S(=O)(=O)Nc3ccccc3)cc2OC)C(C)=O)c(OC)cc1Cl
3129,B-7903,4-amino-6-chlorobenzene-1.3-disulfonamide,IHJCXVZDYSXXFT-UHFFFAOYSA-N,C1=C(C(=CC(=C1Cl)S(=O)(=O)N)S(=O)(=O)N)N,000121-30-2,-2.455940489,Nc1cc(Cl)c(S(N)(=O)=O)cc1S(N)(=O)=O
3130,B-7904,2-[2-[3.4-bis(2-hydroxyethoxy)oxolan-2-yl]-2-(2-hydroxyethoxy)ethoxy]ethyl dodecanoate,HMFKFHLTUCJZJO-UHFFFAOYSA-N,CCCCCCCCCCCC(=O)OCCOCC(C1C(C(CO1)OCCO)OCCO)OCCO,009005-67-8,-3.241110473,CCCCCCCCCCCC(=O)OCCOCC(OCCO)C1OCC(OCCO)C1OCCO
3131,B-7905,3.9-bis(phenylmethyl)-2.4.8.10-tetraoxa-3$l^{5}.9$l^{5}-diphosphaspiro[5.5]undecane 3.9-dioxide,XRBKIMPIQSGVAO-UHFFFAOYSA-N,C1C2(COP(=O)(O1)CC3=CC=CC=C3)COP(=O)(OC2)CC4=CC=CC=C4,020544-37-0,-4.121049299,O=P1(Cc2ccccc2)OCC2(CO1)COP(=O)(Cc1ccccc1)OC2
3132,B-7906,(3Z)-3-[[4-(2-carboxyethylcarbamoyl)phenyl]hydrazinylidene]-6-oxocyclohexa-1.4-diene-1-carboxylic acid,KONZVQJABTUMFX-NDENLUEZSA-N,C1=CC(=CC=C1C(=O)NCCC(=O)O)N/N=C\2/C=CC(=O)C(=C2)C(=O)O,080573-04-2,-2.343544742,O=C(O)CCNC(=O)c1ccc(NN=C2C=CC(=O)C(C(=O)O)=C2)cc1
3133,B-7907,N-(5-chloro-2.4-dimethoxyphenyl)-4-[[5-(diethylsulfamoyl)-2-methoxyphenyl]diazenyl]-3-hydroxynaphthalene-2-carboxamide,LMULDSDQRQVZMW-UHFFFAOYSA-N,CCN(CC)S(=O)(=O)C1=CC(=C(C=C1)OC)N=NC2=C(C(=CC3=CC=CC=C32)C(=O)NC4=CC(=C(C=C4OC)OC)Cl)O,006410-41-9,-7.90524947,CCN(CC)S(=O)(=O)c1ccc(OC)c(N=Nc2c(O)c(C(=O)Nc3cc(Cl)c(OC)cc3OC)cc3ccccc23)c1
3134,B-7908,1-benzyl-4-piperidin-1-ylpiperidine-4-carbonitrile,XXZATAXHOSMHKY-UHFFFAOYSA-N,C1CCN(CC1)C2(CCN(CC2)CC3=CC=CC=C3)C#N,084254-97-7,-2.242884831,N#CC1(N2CCCCC2)CCN(Cc2ccccc2)CC1
3135,B-7909,2.6-Diamino-1H-pyrimidin-4-one,SWELIMKTDYHAOY-UHFFFAOYSA-N,C1=C(NC(=NC1=O)N)N,000056-06-4,-1.378141775,Nc1cc(=O)nc(N)[nH]1
3136,B-7911,2-cyanoethyl 4-(4-cyano-2-methoxyphenyl)-2.8-dimethyl-5-oxo-4.6-dihydro-1H-1.6-naphthyridine-3-carboxylate,YUBVPYQJGHKIIA-UHFFFAOYSA-N,CC1=CNC(=O)C2=C1NC(=C(C2C3=C(C=C(C=C3)C#N)OC)C(=O)OCCC#N)C,1050477-43-4,-4.814419457,COc1cc(C#N)ccc1C1C(C(=O)OCCC#N)=C(C)Nc2c(C)c[nH]c(=O)c21
3137,B-7912,[3-(3-sulfanylpropanoyloxy)-2.2-bis(3-sulfanylpropanoyloxymethyl)propyl] 3-sulfanylpropanoate,JOBBTVPTPXRUBP-UHFFFAOYSA-N,C(CS)C(=O)OCC(COC(=O)CCS)(COC(=O)CCS)COC(=O)CCS,007575-23-7,-5.123144219,O=C(CCS)OCC(COC(=O)CCS)(COC(=O)CCS)COC(=O)CCS
3138,B-7913,2-(3-chloropyridin-2-yl)-N-[4-cyano-2-methyl-6-(methylcarbamoyl)phenyl]-5-[[5-(trifluoromethyl)tetrazol-2-yl]methyl]pyrazole-3-carboxamide,KNDVJPKNBVIKML-UHFFFAOYSA-N,CC1=CC(=CC(=C1NC(=O)C2=CC(=NN2C3=C(C=CC=N3)Cl)CN4N=C(N=N4)C(F)(F)F)C(=O)NC)C#N,1229654-66-3,-5.657135562,CNC(=O)c1cc(C#N)cc(C)c1NC(=O)c1cc(Cn2nnc(C(F)(F)F)n2)nn1-c1ncccc1Cl
3139,B-7914,2-amino-6-methyl-1H-[1.2.4]triazolo[1.5-a]pyrimidin-5-one,PXJTYSVQFWJIMQ-UHFFFAOYSA-N,CC1=CN2C(=NC1=O)N=C(N2)N,027287-73-6,-1.875466942,Cc1cn2[nH]c(N)nc2nc1=O
3140,B-7915,2-[6-[[amino-(cyanoamino)methylidene]amino]hexyl]-1-cyanoguanidine,YXZZOMVBHPCKMM-UHFFFAOYSA-N,C(CCCN=C(N)NC#N)CCN=C(N)NC#N,015894-70-9,-4.550271733,N#CNC(N)=NCCCCCCN=C(N)NC#N
3141,B-7916,2-[[2-chloro-4-[3-chloro-4-[[1-(2-methoxyanilino)-1.3-dioxobutan-2-yl]diazenyl]phenyl]phenyl]diazenyl]-N-(2.4-dimethylphenyl)-3-oxobutanamide,HKBCNTJSSROSSO-UHFFFAOYSA-N,CC1=CC(=C(C=C1)NC(=O)C(C(=O)C)N=NC2=C(C=C(C=C2)C3=CC(=C(C=C3)N=NC(C(=O)C)C(=O)NC4=CC=CC=C4OC)Cl)Cl)C,068610-86-6,-8.203855412,COc1ccccc1NC(=O)C(N=Nc1ccc(-c2ccc(N=NC(C(C)=O)C(=O)Nc3ccc(C)cc3C)c(Cl)c2)cc1Cl)C(C)=O
3142,B-7917,4-[[2.5-dimethoxy-4-(methylsulfamoyl)phenyl]diazenyl]-3-hydroxy-N-(2-oxo-1.3-dihydrobenzimidazol-5-yl)naphthalene-2-carboxamide,UYYYMGPWQPIMAL-UHFFFAOYSA-N,CNS(=O)(=O)C1=C(C=C(C(=C1)OC)N=NC2=C(C(=CC3=CC=CC=C32)C(=O)NC4=CC5=C(C=C4)NC(=O)N5)O)OC,012225-08-0,-7.891629812,CNS(=O)(=O)c1cc(OC)c(N=Nc2c(O)c(C(=O)Nc3ccc4[nH]c(=O)[nH]c4c3)cc3ccccc23)cc1OC
3143,B-7918,2-[[2-chloro-4-[3-chloro-4-[[1-(4-methoxyanilino)-1.3-dioxobutan-2-yl]diazenyl]phenyl]phenyl]diazenyl]-3-oxo-N-phenylbutanamide,DHHOHVWWZLHYBC-UHFFFAOYSA-N,CC(=O)C(C(=O)NC1=CC=CC=C1)N=NC2=C(C=C(C=C2)C3=CC(=C(C=C3)N=NC(C(=O)C)C(=O)NC4=CC=C(C=C4)OC)Cl)Cl,090268-23-8,-8.063357987,COc1ccc(NC(=O)C(N=Nc2ccc(-c3ccc(N=NC(C(C)=O)C(=O)Nc4ccccc4)c(Cl)c3)cc2Cl)C(C)=O)cc1
3144,B-7919,N-(4-acetamidophenyl)-4-[(5-carbamoyl-2-chlorophenyl)diazenyl]-3-hydroxynaphthalene-2-carboxamide,UHZVOVCIPHZPEI-UHFFFAOYSA-N,CC(=O)NC1=CC=C(C=C1)NC(=O)C2=CC3=CC=CC=C3C(=C2O)N=NC4=C(C=CC(=C4)C(=O)N)Cl,012236-64-5,-7.304442163,CC(=O)Nc1ccc(NC(=O)c2cc3ccccc3c(N=Nc3cc(C(N)=O)ccc3Cl)c2O)cc1
3145,B-7920,2-[2.5-dichloro-4-(6.11-dioxo-3H-naphtho[2.3-e]benzimidazol-2-yl)phenyl]-3H-naphtho[3.2-e]benzimidazole-6.11-dione,MLQFPPIUTFMVLZ-UHFFFAOYSA-N,C1=CC=C2C(=C1)C(=O)C3=C(C2=O)C4=C(C=C3)NC(=N4)C5=CC(=C(C=C5Cl)C6=NC7=C(N6)C=CC8=C7C(=O)C9=CC=CC=C9C8=O)Cl,040783-05-9,-4.524775126,O=C1c2ccccc2C(=O)c2c1ccc1[nH]c(-c3cc(Cl)c(-c4nc5c6c(ccc5[nH]4)C(=O)c4ccccc4C6=O)cc3Cl)nc21
3146,B-7921,2-[[2-chloro-4-[3-chloro-4-[[1-(4-chloro-2.5-dimethoxyanilino)-1.3-dioxobutan-2-yl]diazenyl]phenyl]phenyl]diazenyl]-N-(2.4-dimethylphenyl)-3-oxobutanamide,CTCGHGAGCLXAHB-UHFFFAOYSA-N,CC1=CC(=C(C=C1)NC(=O)C(C(=O)C)N=NC2=C(C=C(C=C2)C3=CC(=C(C=C3)N=NC(C(=O)C)C(=O)NC4=CC(=C(C=C4OC)Cl)OC)Cl)Cl)C,090268-24-9,-8.575218048,COc1cc(NC(=O)C(N=Nc2ccc(-c3ccc(N=NC(C(C)=O)C(=O)Nc4ccc(C)cc4C)c(Cl)c3)cc2Cl)C(C)=O)c(OC)cc1Cl
3147,B-7922,2-[2-chloro-4-[3-chloro-4-[1-[(2-methylphenyl)amino]-1.3-dioxobutan-2-yl]diazenylphenyl]phenyl]diazenyl-N-(2-methylphenyl)-3-oxobutanamide,LQZFGPJGXVFSTR-UHFFFAOYSA-N,CC1=CC=CC=C1NC(=O)C(C(=O)C)N=NC2=C(C=C(C=C2)C3=CC(=C(C=C3)N=NC(C(=O)C)C(=O)NC4=CC=CC=C4C)Cl)Cl,005468-75-7,-8.914841965,CC(=O)C(N=Nc1ccc(-c2ccc(N=NC(C(C)=O)C(=O)Nc3ccccc3C)c(Cl)c2)cc1Cl)C(=O)Nc1ccccc1C
3148,B-7923,oxo-[6-(sulfocarbonylamino)hexylamino]methanesulfonic acid,OPRJDBCRUQFLOO-UHFFFAOYSA-N,C(CCCNC(=O)S(=O)(=O)O)CCNC(=O)S(=O)(=O)O,038632-47-2,0.105779321,O=C(NCCCCCCNC(=O)S(=O)(=O)O)S(=O)(=O)O
3149,B-7924,4-[[5-[(4-carbamoylphenyl)carbamoyl]-2-methoxyphenyl]diazenyl]-N-(5-chloro-2.4-dimethoxyphenyl)-3-hydroxynaphthalene-2-carboxamide,DZYFEMTUCDZMSP-UHFFFAOYSA-N,COC1=C(C=C(C=C1)C(=O)NC2=CC=C(C=C2)C(=O)N)N=NC3=C(C(=CC4=CC=CC=C43)C(=O)NC5=CC(=C(C=C5OC)OC)Cl)O,059487-23-9,-7.866239203,COc1cc(OC)c(NC(=O)c2cc3ccccc3c(N=Nc3cc(C(=O)Nc4ccc(C(N)=O)cc4)ccc3OC)c2O)cc1Cl
3150,B-7925,2-[(6-oxobenzo[c][2.1]benzoxaphosphinin-6-yl)methyl]butanedioic acid,XZAXQWXHBDKYJI-UHFFFAOYSA-N,C1=CC=C2C(=C1)C3=CC=CC=C3P(=O)(O2)CC(CC(=O)O)C(=O)O,063562-33-4,-2.813510384,O=C(O)CC(CP1(=O)Oc2ccccc2-c2ccccc21)C(=O)O
3151,B-7926,2-[3-(bis(carboxymethyl)amino)propyl-(carboxymethyl)amino]acetic acid,DMQQXDPCRUGSQB-UHFFFAOYSA-N,C(CN(CC(=O)O)CC(=O)O)CN(CC(=O)O)CC(=O)O,001939-36-2,-1.469073672,O=C(O)CN(CCCN(CC(=O)O)CC(=O)O)CC(=O)O
3152,B-7927,dimethyl 2-[1.3-dioxo-1-[(2-oxo-1.3-dihydrobenzimidazol-5-yl)amino]butan-2-yl]diazenylbenzene-1.4-dicarboxylate,KEZJTZQNDCLRDB-UHFFFAOYSA-N,CC(=O)C(C(=O)NC1=CC2=C(C=C1)NC(=O)N2)N=NC3=C(C=CC(=C3)C(=O)OC)C(=O)OC,035636-63-6,-6.314068797,COC(=O)c1ccc(C(=O)OC)c(N=NC(C(C)=O)C(=O)Nc2ccc3[nH]c(=O)[nH]c3c2)c1
3153,B-7928,5-acetamido-N.N'-bis(2.3-dihydroxypropyl)-2.4.6-triiodobenzene-1.3-dicarboxamide,BHCBLTRDEYPMFZ-UHFFFAOYSA-N,CC(=O)NC1=C(C(=C(C(=C1I)C(=O)NCC(CO)O)I)C(=O)NCC(CO)O)I,031127-80-7,-1.975730369,CC(=O)Nc1c(I)c(C(=O)NCC(O)CO)c(I)c(C(=O)NCC(O)CO)c1I
3154,B-7929,[(7S.9E.11S.12R.13S.14R.15R.16R.17S.18S.19E.21Z)-26.27-diamino-2.15.17-trihydroxy-11-methoxy-3.7.12.14.16.18.22-heptamethyl-6.23.29-trioxo-8.30-dioxa-24-azatetracyclo[23.3.1.14.7.05.28]triaconta-1(28).2.4.9.19.21.24.26-octaen-13-yl] acetate,QBRFPWPICDILII-WVKYYCEASA-N,C[C@H]1/C=C/C=C(\C(=O)N=C2C(=C(C3=C(C2=O)C(=C(C4=C3C(=O)[C@](O4)(O/C=C/[C@@H]([C@H]([C@H]([C@@H]([C@@H]([C@@H]([C@H]1O)C)O)C)OC(=O)C)C)OC)C)C)O)N)N)/C,062041-01-4,-4.598277947,COC1C=COC2(C)Oc3c(C)c(O)c4c(c3C2=O)C(N)=C(N)C(=NC(=O)C(C)=CC=CC(C)C(O)C(C)C(O)C(C)C(OC(C)=O)C1C)C4=O
3155,B-7930,N-(4-carbamoylphenyl)-4-[1.3-dioxo-1-[(2-oxo-1.3-dihydrobenzimidazol-5-yl)amino]butan-2-yl]diazenylbenzamide,PXMLTVJEYHGPEH-UHFFFAOYSA-N,CC(=O)C(C(=O)NC1=CC2=C(C=C1)NC(=O)N2)N=NC3=CC=C(C=C3)C(=O)NC4=CC=C(C=C4)C(=O)N,074441-05-7,-6.672806893,CC(=O)C(N=Nc1ccc(C(=O)Nc2ccc(C(N)=O)cc2)cc1)C(=O)Nc1ccc2[nH]c(=O)[nH]c2c1
3156,B-7931,(4Z)-4-[[2-methoxy-5-(phenylcarbamoyl)phenyl]hydrazinylidene]-3-oxo-N-(2-oxo-1.3-dihydrobenzimidazol-5-yl)naphthalene-2-carboxamide,FUKXNOBSWGZIKZ-AWYAZMPSSA-N,COC1=C(C=C(C=C1)C(=O)NC2=CC=CC=C2)N/N=C\3/C4=CC=CC=C4C=C(C3=O)C(=O)NC5=CC6=C(C=C5)NC(=O)N6,012225-06-8,-8.479081663,COc1ccc(C(=O)Nc2ccccc2)cc1NN=C1C(=O)C(C(=O)Nc2ccc3[nH]c(=O)[nH]c3c2)=Cc2ccccc21
3157,B-7932,3-hydroxy-4-[[2-methoxy-5-methyl-4-(methylsulfamoyl)phenyl]diazenyl]-N-(2-oxo-1.3-dihydrobenzimidazol-5-yl)naphthalene-2-carboxamide,YKGGTUUWVUHZIL-UHFFFAOYSA-N,CC1=CC(=C(C=C1S(=O)(=O)NC)OC)N=NC2=C(C(=CC3=CC=CC=C32)C(=O)NC4=CC5=C(C=C4)NC(=O)N5)O,051920-12-8,-8.217161161,CNS(=O)(=O)c1cc(OC)c(N=Nc2c(O)c(C(=O)Nc3ccc4[nH]c(=O)[nH]c4c3)cc3ccccc23)cc1C
3158,B-7933,5-[3-(6-hydroxy-2.4-dioxo-1H-pyrimidin-5-yl)isoindol-1-ylidene]-1.3-diazinane-2.4.6-trione,VXQNQGCWKZPKET-UHFFFAOYSA-N,C1=CC=C2C(=C1)C(=C3C(=O)NC(=O)NC3=O)N=C2C4=C(NC(=O)NC4=O)O,036888-99-0,-8.102595734,O=C1NC(=O)C(=C2N=C(c3c(O)[nH]c(=O)[nH]c3=O)c3ccccc32)C(=O)N1
3159,B-7934,6-[[4.6-bis[(6-hydroxy-6-oxohexyl)amino]-1.3.5-triazin-2-yl]amino]hexanoic acid,BKKWPPMEXIXECW-UHFFFAOYSA-N,C(CCC(=O)O)CCNC1=NC(=NC(=N1)NCCCCCC(=O)O)NCCCCCC(=O)O,080584-91-4,-5.542358527,O=C(O)CCCCCNc1nc(NCCCCCC(=O)O)nc(NCCCCCC(=O)O)n1
3160,B-7935,2-[3-(dodecanoylamino)propyl-dimethylazaniumyl]acetate,MRUAUOIMASANKQ-UHFFFAOYSA-N,CCCCCCCCCCCC(=O)NCCC[N+](C)(C)CC(=O)[O-],061789-40-0,0.009381095,CCCCCCCCCCCC(=O)NCCC[N+](C)(C)CC(=O)[O-]
3161,B-7936,(2R.3R.4S.5S.6R)-2-[(2S.3S.4S.5R)-3.4-dihydroxy-5-(hydroxymethyl)-2-(prop-2-enoxymethyl)oxolan-2-yl]oxy-6-(hydroxymethyl)oxane-3.4.5-triol,DUMOJBFXLNPOEI-UEZCKYPQSA-N,C=CCOC[C@@]1([C@H]([C@@H]([C@H](O1)CO)O)O)O[C@@H]2[C@@H]([C@H]([C@@H]([C@H](O2)CO)O)O)O,068784-14-5,-3.130690334,C=CCOCC1(OC2OC(CO)C(O)C(O)C2O)OC(CO)C(O)C1O
3162,B-7937,(2R.3S.4S.5R.6R)-2-(hydroxymethyl)-6-[(2R.3R.4S.5S.6R)-3.4.5-trihydroxy-6-(hydroxymethyl)oxan-2-yl]oxyoxane-3.4.5-triol,HDTRYLNUVZCQOY-LIZSDCNHSA-N,C([C@@H]1[C@H]([C@@H]([C@H]([C@H](O1)O[C@@H]2[C@@H]([C@H]([C@@H]([C@H](O2)CO)O)O)O)O)O)O)O,000099-20-7,0.352084841,OCC1OC(OC2OC(CO)C(O)C(O)C2O)C(O)C(O)C1O
3163,B-7938,4-[(2E)-2-[(5E)-3-(hydroxymethyl)-2.6-dioxo-5-[(4-sulfonaphthalen-1-yl)hydrazinylidene]-1-cyclohex-3-enylidene]hydrazinyl]naphthalene-1-sulfonic acid,QYZJZOXEQZLXDY-AIWRBXEOSA-N,C1=CC=C2C(=C1)C(=CC=C2S(=O)(=O)O)N/N=C/3\C=C(C(=O)/C(=N\NC4=CC=C(C5=CC=CC=C54)S(=O)(=O)O)/C3=O)CO,004553-89-3,-0.786864357,O=c1c(CO)cc(=NNc2ccc(S(=O)(=O)O)c3ccccc23)c(=O)c1=NNc1ccc(S(=O)(=O)O)c2ccccc12
3164,B-7939,3-Amino-4-hydroxy-5-nitrobenzenesulfonic acid,RHPXYZMDLOJTFF-UHFFFAOYSA-N,C1=C(C=C(C(=C1N)O)[N+](=O)[O-])S(=O)(=O)O,000096-93-5,-1.746306446,Nc1cc(S(=O)(=O)O)cc([N+](=O)[O-])c1O
3165,B-7940,(2S)-7-[(2S.3R.4S.5S.6R)-4.5-dihydroxy-6-(hydroxymethyl)-3-[(2S.3R.4R.5R.6S)-3.4.5-trihydroxy-6-methyloxan-2-yl]oxyoxan-2-yl]oxy-5-hydroxy-2-(3-hydroxy-4-methoxyphenyl)chroman-4-one,ARGKVCXINMKCAZ-UZRWAPQLSA-N,C[C@H]1[C@@H]([C@H]([C@H]([C@@H](O1)O[C@@H]2[C@H]([C@@H]([C@H](O[C@H]2OC3=CC(=C4C(=O)C[C@H](OC4=C3)C5=CC(=C(C=C5)OC)O)O)CO)O)O)O)O)O,013241-33-3,-5.185850682,COc1ccc(C2CC(=O)c3c(O)cc(OC4OC(CO)C(O)C(O)C4OC4OC(C)C(O)C(O)C4O)cc3O2)cc1O
3166,B-7941,2-[dimethyl-[3-(3.3.4.4.5.5.6.6.7.7.8.8.8-tridecafluorooctylsulfonylamino)propyl]azaniumyl]acetate,OKOCIUJVPQKDLL-UHFFFAOYSA-N,C[N+](C)(CCCNS(=O)(=O)CCC(C(C(C(C(C(F)(F)F)(F)F)(F)F)(F)F)(F)F)(F)F)CC(=O)[O-],034455-29-3,-4.057183092,C[N+](C)(CCCNS(=O)(=O)CCC(F)(F)C(F)(F)C(F)(F)C(F)(F)C(F)(F)C(F)(F)F)CC(=O)[O-]