,C_ID,Name,InChIKey,SMILES,CAS,LogS,smiles_canon
3756,B-8947,N.N-dicyclohexyl-2-hydroxybenzamide,QMJPDCOTBLUFHJ-UHFFFAOYSA-N,OC1CCCCC1C(=O)N(C1CCCCC1)C1CCCCC1,063992-44-9,-5.570165605,O=C(C1CCCCC1O)N(C1CCCCC1)C1CCCCC1
3757,B-8950,Phenanthrene-3-carboxylic acid,WYQIVZKSGGKUAX-UHFFFAOYSA-N,OC(=O)C1CCC2C(C1)C1CCCCC1CC2,007470-14-6,-5.541327233,O=C(O)C1CCC2CCC3CCCCC3C2C1
3758,B-8951,6-bromo-1.3-benzoxazol-2-amine,APUYIVHTTCCVMF-UHFFFAOYSA-N,BrC1CCC2C(C1)OC(N2)N,052112-66-0,-2.726388931,NC1NC2CCC(Br)CC2O1
3759,B-8953,methyl 2-(2-dimethylaminoethoxy)-6-methyl-3-propan-2-ylbenzoate,YJVPMWAGSODFAA-UHFFFAOYSA-N,COC(=O)C1C(C)CCC(C1OCCN(C)C)C(C)C,052073-22-0,-3.312656405,COC(=O)C1C(C)CCC(C(C)C)C1OCCN(C)C
3760,B-8957,6-chloro-2-methyl-4H-1.4-benzoxazin-3-one,MGOCBXKZDZRPMK-UHFFFAOYSA-N,O=C1NC2CC(Cl)CCC2OC1C,005791-00-4,-2.458869763,CC1OC2CCC(Cl)CC2NC1=O
3761,B-8958,1-Methylindole-2-carboxylic acid,MAHAMBLNIDMREX-UHFFFAOYSA-N,OC(=O)C1CC2C(N1C)CCCC2,016136-58-6,-2.600049199,CN1C(C(=O)O)CC2CCCCC21
3762,B-8959,3-(2-methylpiperidin-1-yl)propyl 3-phenylpropanoate,ASKZGJDEXADJKD-UHFFFAOYSA-N,O=C(CCC1CCCCC1)OCCCN1CCCCC1C,063884-41-3,-4.178225825,CC1CCCCN1CCCOC(=O)CCC1CCCCC1
3763,B-8960,2.3-Dihydro-1H-indene-1-carboxylic acid,JBQMFBWTKWOSQX-UHFFFAOYSA-N,OC(=O)C1CCC2C1CCCC2,014381-42-1,-1.938177112,O=C(O)C1CCC2CCCCC21
3764,B-8961,1-[(4-chlorophenyl)-phenylmethyl]-4-[(3-methylphenyl)methyl]piperazine,OCJYIGYOJCODJL-UHFFFAOYSA-N,ClC1CCC(CC1)C(C1CCCCC1)N1CCN(CC1)CC1CCCC(C1)C,000569-65-3,-4.629988891,CC1CCCC(CN2CCN(C(C3CCCCC3)C3CCC(Cl)CC3)CC2)C1
3765,B-8962,2-methoxy-1-(phenylmethoxy)-4-prop-2-enylbenzene,NSCLRALYUOMPCL-UHFFFAOYSA-N,C=CCC1CCC(C(C1)OC)OCC1CCCCC1,057371-42-3,-5.102199809,C=CCC1CCC(OCC2CCCCC2)C(OC)C1
3766,B-8963,3-(5.6-dihydrobenzo[b][1.5]benzodiazepin-11-yl)-N.N-dimethylpropan-1-amine,ZUMKGEDSJKWRFD-UHFFFAOYSA-N,CN(CCCN1C2CCCCC2NCC2C1CCCC2)C,002204-53-7,-4.306313954,CN(C)CCCN1C2CCCCC2CNC2CCCCC21
3767,B-8965,5.6-dichloro-1.3-benzoxazol-2-amine,IHWQUKMGROAAEH-UHFFFAOYSA-N,NC1OC2C(N1)CC(C(C2)Cl)Cl,064037-12-3,-2.993675881,NC1NC2CC(Cl)C(Cl)CC2O1
3768,B-8966,1-(4.5-dihydro-1H-imidazol-2-ylmethyl)-2.3.4.5-tetrahydro-1-benzazepine,TZYNTOLBNMSWOH-UHFFFAOYSA-N,C1CCC2C(N(C1)CC1=NCCN1)CCCC2,024483-78-1,-3.476793755,C1CCC2C(C1)CCCCN2CC1=NCCN1
3769,B-8967,5-methyl-1.3-benzoxazol-2-amine,JIWCNPTXYLRLIE-UHFFFAOYSA-N,CC1CCC2C(C1)NC(O2)N,064037-15-6,-1.961230582,CC1CCC2OC(N)NC2C1
3770,B-8969,4-dimethylamino-1-phenylpyrrolidin-2-one,XVTZQNZGUDNVOW-UHFFFAOYSA-N,CN(C1CN(C(=O)C1)C1CCCCC1)C,000716-38-1,-1.064698278,CN(C)C1CC(=O)N(C2CCCCC2)C1
3771,B-8970,1.3-benzothiazol-6-amine,FAYAYUOZWYJNBD-UHFFFAOYSA-N,NC1CCC2C(C1)SCN2,000533-30-2,-1.550943161,NC1CCC2NCSC2C1
3772,B-8971,3-phenylpropyl 2-hydroxybenzoate,GMHNYYKDPGWAJR-UHFFFAOYSA-N,O=C(C1CCCCC1O)OCCCC1CCCCC1,024781-13-3,-5.010810275,O=C(OCCCC1CCCCC1)C1CCCCC1O
3773,B-8973,(1-ethylpiperidin-3-yl) N-(3-methylphenyl)carbamate,ISADCDVTGCDIGA-UHFFFAOYSA-N,CCN1CCCC(C1)OC(=O)NC1CCCC(C1)C,033531-58-7,-3.365807591,CCN1CCCC(OC(=O)NC2CCCC(C)C2)C1
3774,B-8976,(1-ethylpiperidin-3-yl) N-(4-bromophenyl)carbamate,CDCOFPQIYLPBRQ-UHFFFAOYSA-N,CCN1CCCC(C1)OC(=O)NC1CCC(CC1)Br,033531-52-1,-4.131027102,CCN1CCCC(OC(=O)NC2CCC(Br)CC2)C1
3775,B-8977,Ethyl 3.4-dimethoxybenzoate,AYYNUGSDPRDVCH-UHFFFAOYSA-N,CCOC(=O)C1CCC(C(C1)OC)OC,003943-77-9,-2.022967471,CCOC(=O)C1CCC(OC)C(OC)C1
3776,B-8978,propyl 2-methoxy-2H-quinoline-1-carboxylate,MCLOPXVYPGACGR-UHFFFAOYSA-N,CCCOC(=O)N1C(OC)C=CC2C1CCCC2,030831-70-0,-4.336308746,CCCOC(=O)N1C(OC)C=CC2CCCCC21
3777,B-8979,1-phenylpropan-2-yl carbamate,QWJRGNMSAAHHJP-UHFFFAOYSA-N,CC(CC1CCCCC1)OC(=O)N,000709-90-0,-2.307423322,CC(CC1CCCCC1)OC(N)=O
3778,B-8980,methyl 2-amino-3-(4-chlorophenyl)propanoate,FBHPVOLRIXZZMD-UHFFFAOYSA-N,COC(=O)C(CC1CCC(CC1)Cl)N,134166-72-6,-1.180506144,COC(=O)C(N)CC1CCC(Cl)CC1
3779,B-8981,3-methoxybenzo[b]phenalen-7-one,BGQDCDRDPCVLJE-UHFFFAOYSA-N,COC1CCC2C3C1CCCC3C(=O)C1C2CCCC1,003688-79-7,-6.31509026,COC1CCC2C3CCCCC3C(=O)C3CCCC1C32
3780,B-8982,[3-(phenoxy)phenyl]methyl (1S.3S)-2.2-dimethyl-3-(2-methylprop-1-enyl)cyclopropane-1-carboxylate,SBNFWQZLDJGRLK-LEWJYISDSA-N,CC(=C[C@H]1[C@@H](C1(C)C)C(=O)OCC1CCCC(C1)OC1CCCCC1)C,066036-31-5,-5.2399998,CC(C)=CC1C(C(=O)OCC2CCCC(OC3CCCCC3)C2)C1(C)C
3781,B-8983,1-(2.6-dichlorophenyl)-3H-indol-2-one,JCICIFOYVSPMHG-UHFFFAOYSA-N,O=C1CC2C(N1C1C(Cl)CCCC1Cl)CCCC2,015362-40-0,-3.881958079,O=C1CC2CCCCC2N1C1C(Cl)CCCC1Cl
3782,B-8984,1-ethyl-13-methyl-10-(3-methylbut-2-enyl)-10-azatricyclo[7.3.1.02.7]trideca-2(7).3.5-trien-4-ol,GHOMLITVLACWGO-UHFFFAOYSA-N,CCC12CCN(C(C1C)CC1C2CC(O)CC1)CC=C(C)C,003639-66-5,-4.50832022,CCC12CCN(CC=C(C)C)C(CC3CCC(O)CC31)C2C
3783,B-8985,2.4.5-trichloro-6-hydroxybenzene-1.3-dicarbonitrile,MDQKYGOECVSPIW-UHFFFAOYSA-N,N#CC1C(O)C(Cl)C(C(C1Cl)C#N)Cl,028343-61-5,-3.329045264,N#CC1C(O)C(Cl)C(Cl)C(C#N)C1Cl
3784,B-8987,7-chloro-5-phenyl-2.3-dihydro-1H-1.4-benzodiazepine,JZWOKDTXYPEJEW-UHFFFAOYSA-N,ClC1CCC2C(C1)C(=NCCN2)C1CCCCC1,001694-78-6,-4.392448356,ClC1CCC2NCCN=C(C3CCCCC3)C2C1
3785,B-8988,3-(2-ethylphenoxy)propane-1.2-diol,KLIWBPMQXVJEAN-UHFFFAOYSA-N,OCC(COC1CCCCC1CC)O,007149-82-8,-2.251408128,CCC1CCCCC1OCC(O)CO
3786,B-8989,3-(9-chloro-5.6-dihydrobenzo[c][1.5]benzodiazepin-11-yl)-N.N-dimethylpropan-1-amine,WFPKGPHTXIOMFI-UHFFFAOYSA-N,CN(CCCN1C2CCCCC2NCC2C1CC(Cl)CC2)C,063918-62-7,-5.108538899,CN(C)CCCN1C2CC(Cl)CCC2CNC2CCCCC21
3787,B-8990,3-(2-methylpiperidin-1-yl)propyl 4-propan-2-yloxybenzoate,KCGKUMMLOWMRHO-UHFFFAOYSA-N,CC(OC1CCC(CC1)C(=O)OCCCN1CCCCC1C)C,063916-92-7,-4.607869891,CC(C)OC1CCC(C(=O)OCCCN2CCCCC2C)CC1
3788,B-8991,N-(2-Butoxyphenyl)acetamide,MJELWGXEQOCGGW-UHFFFAOYSA-N,CCCCOC1CCCCC1NC(=O)C,000532-09-2,-2.498316819,CCCCOC1CCCCC1NC(C)=O
3789,B-8993,11-ethoxy-5-methyl-11H-benzo[c][2]benzazepin-6-one,BLGFGFHRMMDRPC-UHFFFAOYSA-N,CCOC1C2CCCCC2C(=O)N(C2C1CCCC2)C,088124-27-0,-4.540553724,CCOC1C2CCCCC2C(=O)N(C)C2CCCCC12
3790,B-8994,6-methylpyrido[2.3-b][1.5]benzoxazepin-5-one,BBMMISOHGVCAMY-UHFFFAOYSA-N,O=C1N(C)C2CCCCC2OC2C1CCCN2,134894-49-8,-3.6700001,CN1C(=O)C2CCCNC2OC2CCCCC21
3791,B-8996,4-Methoxy-6-methyl-1.3.5-triazin-2-amine,NXFQWRWXEYTOTK-UHFFFAOYSA-N,COC1NC(C)NC(N1)N,001668-54-8,-1.302725284,COC1NC(C)NC(N)N1
3792,B-8997,(1-methylpiperidin-3-yl) 2-hydroxy-2-phenyl-2-thiophen-2-ylacetate,MZZQSAPGRDBPFR-UHFFFAOYSA-N,CN1CCCC(C1)OC(=O)C(C1CCCS1)(C1CCCCC1)O,063917-18-0,-2.766043468,CN1CCCC(OC(=O)C(O)(C2CCCCC2)C2CCCS2)C1
3793,B-8999,propyl 2-(2-dimethylaminoethoxy)-6-methyl-3-propan-2-ylbenzoate,JKLZHNLMWBDPJY-UHFFFAOYSA-N,CCCOC(=O)C1C(C)CCC(C1OCCN(C)C)C(C)C,053206-72-7,-4.354212973,CCCOC(=O)C1C(C)CCC(C(C)C)C1OCCN(C)C
3794,B-9000,2-(4-methylpiperazin-1-yl)-1.1-di(phenyl)ethanol,BNYKNAMROLCQRS-UHFFFAOYSA-N,CN1CCN(CC1)CC(C1CCCCC1)(C1CCCCC1)O,021579-78-2,-2.023192392,CN1CCN(CC(O)(C2CCCCC2)C2CCCCC2)CC1
3795,B-9001,5-iodo-1.3-benzoxazol-2-amine,VLQYRAJKFGZRNV-UHFFFAOYSA-N,IC1CCC2C(C1)NC(O2)N,064037-13-4,-3.304440426,NC1NC2CC(I)CCC2O1
3796,B-9002,2-Propyl-1H-benzimidazole,FBLJZPQLNMVEMR-UHFFFAOYSA-N,CCCC1NC2C([NH]1)CCCC2,005465-29-2,-2.730500463,CCCC1NC2CCCCC2N1
3797,B-9003,4-chloro-N-methyl-6-(4-methylpiperazin-1-yl)-5-methylsulfanylpyrimidin-2-amine,ITYXRJDDBZMFAY-UHFFFAOYSA-N,CSC1C(Cl)NC(NC1N1CCN(CC1)C)NC,050335-55-2,-2.844208663,CNC1NC(Cl)C(SC)C(N2CCN(C)CC2)N1
3798,B-9005,2-phenylpyrazol-3-amine,ZVNYYNAAEVZNDW-UHFFFAOYSA-N,NC1CCNN1C1CCCCC1,000826-85-7,-1.13746325,NC1CCNN1C1CCCCC1
3799,B-9006,(1-propylpiperidin-4-yl) N-(2.6-dimethylphenyl)carbamate,XGGVMZAOGRFJIR-UHFFFAOYSA-N,CCCN1CCC(CC1)OC(=O)NC1C(C)CCCC1C,033531-37-2,-4.458685722,CCCN1CCC(OC(=O)NC2C(C)CCCC2C)CC1
3800,B-9007,(1S.9R.10S)-17-(cyclobutylmethyl)-17-azatetracyclo[7.5.3.01.10.02.7]heptadeca-2(7).3.5-triene-4.10-diol,IFKLAQQSCNILHL-QHAWAJNXSA-N,OC1CCC2C(C1)[C@]13CCCC[C@]3([C@@H](C2)N(CC1)CC1CCC1)O,042408-82-2,-3.829248062,OC1CCC2CC3N(CC4CCC4)CCC4(CCCCC34O)C2C1
3801,B-9008,methyl 2-(2-diethylaminoethoxy)-6-methyl-3-propan-2-ylbenzoate,BNWQPZXARAASNP-UHFFFAOYSA-N,CCN(CCOC1C(CCC(C1C(=O)OC)C)C(C)C)CC,052073-24-2,-4.354212973,CCN(CC)CCOC1C(C(C)C)CCC(C)C1C(=O)OC
3802,B-9009,2-(8-chloro-6-phenylbenzo[b][1.5]benzodiazepin-11-yl)-N.N-dimethylethanamine,SNUOZYUMIBOGNS-UHFFFAOYSA-N,CN(CCN1C2CCCCC2N=C(C2C1CCC(C2)Cl)C1CCCCC1)C,032047-66-8,-5.841875049,CN(C)CCN1C2CCCCC2N=C(C2CCCCC2)C2CC(Cl)CCC21
3803,B-9010,3-(3.4-dimethylphenoxy)-2-methylpropane-1.2-diol,IFSQBTQASZDHGA-UHFFFAOYSA-N,OCC(COC1CCC(C(C1)C)C)(O)C,064049-46-3,-2.449462888,CC1CCC(OCC(C)(O)CO)CC1C
3804,B-9011,4-Ethyl-6-methoxy-1.3.5-triazin-2-amine,NZQFOCIYDGJNSF-UHFFFAOYSA-N,CCC1NC(OC)NC(N1)N,000701-78-0,-1.824396343,CCC1NC(N)NC(OC)N1
3805,B-9014,2-dimethylamino-1-(2.2.6.6-tetramethyl-4-phenyl-3H-pyridin-1-yl)ethanone,FXCYKPOHYGUTNI-UHFFFAOYSA-N,CN(CC(=O)N1C(C)(C)CC(=CC1(C)C)C1CCCCC1)C,053725-51-2,-4.61325536,CN(C)CC(=O)N1C(C)(C)C=C(C2CCCCC2)CC1(C)C
3806,B-9016,1-(1.3-benzodioxol-5-yl)propan-2-ylhydrazine,ZTBPMPNPJPKIHB-UHFFFAOYSA-N,NNC(CC1CCC2C(C1)OCO2)C,016602-88-3,-1.860190438,CC(CC1CCC2OCOC2C1)NN
3807,B-9017,6-bromo-5-chloro-1.3-benzoxazol-2-amine,PEEJUZZCANIEIL-UHFFFAOYSA-N,NC1OC2C(N1)CC(C(C2)Br)Cl,064037-08-7,-3.527837028,NC1NC2CC(Cl)C(Br)CC2O1
3808,B-9018,2-hydroxy-N-propan-2-ylbenzamide,ZWIKMHMXRCCKQO-UHFFFAOYSA-N,CC(NC(=O)C1CCCCC1O)C,000551-35-9,-1.986212297,CC(C)NC(=O)C1CCCCC1O
3809,B-9020,1-phenyl-4-piperidin-1-ylpyrrolidin-2-one,HXYYSKMOHXXOAW-UHFFFAOYSA-N,O=C1CC(CN1C1CCCCC1)N1CCCCC1,000728-53-0,-2.518759295,O=C1CC(N2CCCCC2)CN1C1CCCCC1
3810,B-9021,4.6-dimethyl-2-[5-(1.3-thiazolidin-3-yl)pentoxy]quinoline,KLZXYEFMBIATFN-UHFFFAOYSA-N,CC1CCC2C(C1)C(C)CC(N2)OCCCCCN1CSCC1,041288-24-8,-4.801487807,CC1CCC2NC(OCCCCCN3CCSC3)CC(C)C2C1
3811,B-9022,1-(2-methylphenoxy)butane-2.3-diol,IPOLRLFQPJCFET-UHFFFAOYSA-N,CC(C(COC1CCCCC1C)O)O,063991-95-7,-1.848756018,CC(O)C(O)COC1CCCCC1C
3812,B-9023,2-ethyl-9-methyl-2.4.9.15-tetrazatricyclo[9.4.0.03.8]pentadeca-1(11).3(8).4.6.12.14-hexaen-10-one,SVFKQHLOBRUZGV-UHFFFAOYSA-N,CCN1C2NCCCC2N(C(=O)C2C1NCCC2)C,132312-85-7,-2.6199999,CCN1C2NCCCC2C(=O)N(C)C2CCCNC21
3813,B-9024,1.2-di(phenyl)-3-piperidin-1-ylpropan-1-one,KJPKPBMWHKBKHG-UHFFFAOYSA-N,O=C(C(C1CCCCC1)CN1CCCCC1)C1CCCCC1,020451-28-9,-4.060934731,O=C(C1CCCCC1)C(CN1CCCCC1)C1CCCCC1
3814,B-9025,(2Z)-2-(diethylhydrazinylidene)-1-(4-phenylphenyl)ethanone,IQRKAGUQCVXZSS-RGEXLXHISA-N,CCN(/N=C\C(=O)C1CCC(CC1)C1CCCCC1)CC,024342-51-6,-4.230249146,CCN(CC)N=CC(=O)C1CCC(C2CCCCC2)CC1
3815,B-9026,N-[(4-methoxyphenyl)methyl]-N'.N'-dimethyl-N-pyrimidin-2-ylethane-1.2-diamine,GULNIHOSWFYMRN-UHFFFAOYSA-N,COC1CCC(CC1)CN(C1NCCCN1)CCN(C)C,000091-85-0,-2.989989384,COC1CCC(CN(CCN(C)C)C2NCCCN2)CC1
3816,B-9027,2-methyl-4.6-di(morpholin-4-yl)-1.3.5-triazine,QPJGOZXYYJDTID-UHFFFAOYSA-N,CC1NC(NC(N1)N1CCOCC1)N1CCOCC1,026234-42-4,-2.537274336,CC1NC(N2CCOCC2)NC(N2CCOCC2)N1
3817,B-9028,1-phenylethylhydrazine,HHRZAEJMHSGZNP-UHFFFAOYSA-N,NNC(C1CCCCC1)C,004197-79-9,-1.15507783,CC(NN)C1CCCCC1
3818,B-9030,(2Z)-2-(dimethylhydrazinylidene)-1-(4-methoxyphenyl)ethanone,VFUZELURVABLEH-WQLSENKSSA-N,COC1CCC(CC1)C(=O)/C=N\N(C)C,025555-11-7,-1.4140163,COC1CCC(C(=O)C=NN(C)C)CC1
3819,B-9031,1-[4.5-di(phenyl)-1.3-oxazol-2-yl]-4-methylpiperazine,QAYGLHSZAFDOJZ-UHFFFAOYSA-N,CN1CCN(CC1)C1NC(C(O1)C1CCCCC1)C1CCCCC1,020503-88-2,-4.041947778,CN1CCN(C2NC(C3CCCCC3)C(C3CCCCC3)O2)CC1
3820,B-9032,2-(methyl-(phenylmethyl)amino)-1-(2.2.6.6-tetramethylpiperidin-1-yl)ethanone,IQIDGOOBRWIRLZ-UHFFFAOYSA-N,CN(CC1CCCCC1)CC(=O)N1C(C)(C)CCCC1(C)C,053725-44-3,-4.763833111,CN(CC(=O)N1C(C)(C)CCCC1(C)C)CC1CCCCC1
3821,B-9033,2-diethylaminoethyl 2-hydroxy-2.2-di(phenyl)acetate,IVQOFBKHQCTVQV-UHFFFAOYSA-N,CCN(CCOC(=O)C(C1CCCCC1)(C1CCCCC1)O)CC,000302-40-9,-2.512944461,CCN(CC)CCOC(=O)C(O)(C1CCCCC1)C1CCCCC1
3822,B-9034,(4-chlorophenyl)-(8-methyl-3.8-diazabicyclo[3.2.1]octan-3-yl)methanone,IKHUSJCGKQISRF-UHFFFAOYSA-N,CN1C2CCC1CN(C2)C(=O)C1CCC(CC1)Cl,057269-18-8,-2.566716429,CN1C2CCC1CN(C(=O)C1CCC(Cl)CC1)C2
3823,B-9036,(1S.2R)-2-(octylamino)-1-(4-propan-2-ylsulfanylphenyl)propan-1-ol,BFCDFTHTSVTWOG-YLJYHZDGSA-N,CCCCCCCCN[C@@H]([C@H](C1CCC(CC1)SC(C)C)O)C,054767-75-8,-5.460172849,CCCCCCCCNC(C)C(O)C1CCC(SC(C)C)CC1
3824,B-9037,2-methyl-1.2-di(pyridin-3-yl)propan-1-one,FJLBFSROUSIWMA-UHFFFAOYSA-N,O=C(C(C1CCCNC1)(C)C)C1CCCNC1,037245-80-0,-2.052529893,CC(C)(C(=O)C1CCCNC1)C1CCCNC1
3825,B-9038,3-diethylaminopropyl (E)-3-phenylprop-2-enoate,CHLMFHKZCVSJIJ-VAWYXSNFSA-N,CCN(CCCOC(=O)/C=C/C1CCCCC1)CC,004361-80-2,-3.111896044,CCN(CC)CCCOC(=O)C=CC1CCCCC1
3826,B-9039,propan-2-yl 2-(2-dimethylaminoethoxy)-6-methyl-3-propan-2-ylbenzoate,QYYJLBGFIYZBTC-UHFFFAOYSA-N,CN(CCOC1C(CCC(C1C(=O)OC(C)C)C)C(C)C)C,053206-73-8,-4.291852229,CC(C)OC(=O)C1C(C)CCC(C(C)C)C1OCCN(C)C
3827,B-9042,6.7-dimethoxy-2-methyl-1-[2-(2.3.4-trichlorophenyl)ethyl]-3.4-dihydro-1H-isoquinoline,WZUMCRQKXQMYEY-UHFFFAOYSA-N,COC1CC2C(CC1OC)CCN(C2CCC1CCC(C(C1Cl)Cl)Cl)C,063937-61-1,-6.471659416,COC1CC2CCN(C)C(CCC3CCC(Cl)C(Cl)C3Cl)C2CC1OC
3828,B-9043,2-(1-benzothiophen-3-yl)acetic acid,VFZQJKXVHYZXMM-UHFFFAOYSA-N,OC(=O)CC1CSC2C1CCCC2,001131-09-5,-2.279504288,O=C(O)CC1CSC2CCCCC12
3829,B-9046,4-(1.2.4.4a.5.6-hexahydropyrazino[4.3-a]quinolin-3-yl)-2-methylbutan-2-ol,GRPWOXJJPTXYQU-UHFFFAOYSA-N,CC(CCN1CCN2C(C1)CCC1C2CCCC1)(O)C,021621-38-5,-2.752655014,CC(C)(O)CCN1CCN2C(CCC3CCCCC32)C1
3830,B-9047,(1R.9R.13R)-1.13-dimethyl-10-(3-methylbut-2-enyl)-10-azatricyclo[7.3.1.02.7]trideca-2(7).3.5-trien-4-ol,VOKSWYLNZZRQPF-GDIGMMSISA-N,CC(=CCN1CC[C@@]2([C@H]([C@H]1CC1C2CC(CC1)O)C)C)C,021820-34-8,-3.974632215,CC(C)=CCN1CCC2(C)C(C)C1CC1CCC(O)CC12
3831,B-9048,2-(2.4.6-triiodophenoxy)acetic acid,QZUCYFDJFTZLNK-UHFFFAOYSA-N,OC(=O)COC1C(I)CC(CC1I)I,074592-94-2,-6.790655825,O=C(O)COC1C(I)CC(I)CC1I
3832,B-9049,ethyl 4-oxochromene-2-carboxylate,CJVFJZNWXDFXHF-UHFFFAOYSA-N,CCOC(=O)C1CC(=O)C2C(O1)CCCC2,014736-31-3,-2.357052042,CCOC(=O)C1CC(=O)C2CCCCC2O1
3833,B-9050,2.3-di(phenyl)propanenitrile,DRONDEZXOJEUGU-UHFFFAOYSA-N,N#CC(C1CCCCC1)CC1CCCCC1,003333-14-0,-4.126217321,N#CC(CC1CCCCC1)C1CCCCC1
3834,B-9051,[2-(phenylmethoxy)phenyl]methanol,XRZMRABYCSOXIZ-UHFFFAOYSA-N,OCC1CCCCC1OCC1CCCCC1,003381-87-1,-2.69950546,OCC1CCCCC1OCC1CCCCC1
3835,B-9052,5-chloro-1.2-benzothiazol-3-one,IYFOEVOXKZUQPJ-UHFFFAOYSA-N,ClC1CCC2C(C1)C(=O)[NH]S2,004337-43-3,-1.649543136,O=C1NSC2CCC(Cl)CC12
3836,B-9055,7-methyl-3-[1-(phenylmethyl)pyrrolidin-2-yl]-1H-indole,BDFDPVIJXDROQT-UHFFFAOYSA-N,CC1CCCC2C1[NH]CC2C1CCCN1CC1CCCCC1,019133-99-4,-4.155515529,CC1CCCC2C(C3CCCN3CC3CCCCC3)CNC12
3837,B-9056,3-(2-methylpiperidin-1-yl)propyl 4-methoxybenzoate,ADQDRPUFTMYUAP-UHFFFAOYSA-N,COC1CCC(CC1)C(=O)OCCCN1CCCCC1C,063916-95-0,-3.627519382,COC1CCC(C(=O)OCCCN2CCCCC2C)CC1
3838,B-9057,4-[(2-amino-3.5-dibromophenyl)methylamino]cyclohexan-1-ol,JBDGDEWWOUBZPM-UHFFFAOYSA-N,OC1CCC(CC1)NCC1CC(Br)CC(C1N)Br,018683-91-5,-3.621207295,NC1C(Br)CC(Br)CC1CNC1CCC(O)CC1
3839,B-9059,4-heptylbenzene-1.3-diol,PFPZRMUCMKVUEX-UHFFFAOYSA-N,CCCCCCCC1CCC(CC1O)O,018979-65-2,-4.006937473,CCCCCCCC1CCC(O)CC1O
3840,B-9061,(S)-[(2R.4S.5S)-5-ethenyl-1-azabicyclo[2.2.2]octan-2-yl]-quinolin-4-ylmethanol,KMPWYEUPVWOPIM-CFGMGRTJSA-N,C=C[C@@H]1CN2CC[C@H]1C[C@@H]2[C@H](C1CCNC2C1CCCC2)O,015614-44-0,-3.0699999,C=CC1CN2CCC1CC2C(O)C1CCNC2CCCCC21
3841,B-9062,2-Methylpropyl 4-hydroxybenzoate,XPJVKCRENWUEJH-UHFFFAOYSA-N,CC(COC(=O)C1CCC(CC1)O)C,004247-02-3,-2.938068292,CC(C)COC(=O)C1CCC(O)CC1
3842,B-9064,4.6-dimethyl-2-[3-(1.3-thiazolidin-3-yl)propoxy]quinoline,KGLCGIINOLSTEG-UHFFFAOYSA-N,CC1CCC2C(C1)C(C)CC(N2)OCCCN1CSCC1,041288-15-7,-3.75882287,CC1CCC2NC(OCCCN3CCSC3)CC(C)C2C1
3843,B-9065,5.6-dichloro-3H-1.3-benzoxazol-2-one,WLWRBOFZMOBYJR-UHFFFAOYSA-N,O=C1[NH]C2C(O1)CC(C(C2)Cl)Cl,005285-41-6,-2.597835712,O=C1NC2CC(Cl)C(Cl)CC2O1
3844,B-9066,N-tert-butyl-4-chloro-6-(4-methylpiperazin-1-yl)-5-methylsulfanylpyrimidin-2-amine,JXKQVGCVDCOCJA-UHFFFAOYSA-N,CSC1C(Cl)NC(NC1N1CCN(CC1)C)NC(C)(C)C,055477-20-8,-2.985616075,CSC1C(Cl)NC(NC(C)(C)C)NC1N1CCN(C)CC1
3845,B-9067,2-(phenoxy)butanoic acid,TVSPPYGAFOVROT-UHFFFAOYSA-N,CCC(C(=O)O)OC1CCCCC1,013794-14-4,-2.041978717,CCC(OC1CCCCC1)C(=O)O
3846,B-9068,3-methyl-7-nitro-1.4-dihydro-2.3-benzoxazine,XRNMUORBCMFEJN-UHFFFAOYSA-N,CN1OCC2C(C1)CCC(C2)[N+](=O)[O-],021038-09-5,-2.496536213,CN1CC2CCC([N+](=O)[O-])CC2CO1
3847,B-9070,3-(2-methylpiperidin-1-yl)propyl 4-hexan-2-yloxybenzoate,IHTNSEAIRWVJJI-UHFFFAOYSA-N,CCCCC(OC1CCC(CC1)C(=O)OCCCN1CCCCC1C)C,063918-96-7,-6.172533262,CCCCC(C)OC1CCC(C(=O)OCCCN2CCCCC2C)CC1
3848,B-9072,(8R.9S.13S.14S.17R)-3-cyclopentyloxy-17-ethynyl-13-methyl-7.8.9.11.12.14.15.16-octahydro-6H-cyclopenta[a]phenanthren-17-ol,PWZUUYSISTUNDW-VAFBSOEGSA-N,C#C[C@]1(O)CC[C@@H]2[C@]1(C)CC[C@H]1[C@H]2CCC2C1CCC(C2)OC1CCCC1,000152-43-2,-6.983895731,C#CC1(O)CCC2C3CCC4CC(OC5CCCC5)CCC4C3CCC21C
3849,B-9073,propan-2-yl 2-methoxy-2H-quinoline-1-carboxylate,CCWOKFNOLILVKD-UHFFFAOYSA-N,COC1C=CC2C(N1C(=O)OC(C)C)CCCC2,030831-72-2,-4.272639666,COC1C=CC2CCCCC2N1C(=O)OC(C)C
3850,B-9075,(1R)-1.2-di(phenyl)ethanol,GBGXVCNOKWAMIP-CQSZACIVSA-N,O[C@@H](C1CCCCC1)CC1CCCCC1,041822-67-7,-2.52,OC(CC1CCCCC1)C1CCCCC1
3851,B-9076,(1-ethylpiperidin-3-yl) N-(3-bromophenyl)carbamate,DMBFFBKRQNVNGD-UHFFFAOYSA-N,CCN1CCCC(C1)OC(=O)NC1CCCC(C1)Br,033531-53-2,-4.131027102,CCN1CCCC(OC(=O)NC2CCCC(Br)C2)C1
3852,B-9077,2-[3-(dimethylamino)-2-methylpropyl]tricyclo[9.4.0.03.8]pentadeca-1(15).3.5.7.11.13-hexaen-2-ol,GFTHYQRJEOORHK-UHFFFAOYSA-N,CN(CC(CC1(O)C2CCCCC2CCC2C1CCCC2)C)C,002625-17-4,-5.616693099,CC(CN(C)C)CC1(O)C2CCCCC2CCC2CCCCC21
3853,B-9078,11-ethyl-5-methylbenzo[b][1.4]benzodiazepin-6-one,IUMRYNUBZSCOQG-UHFFFAOYSA-N,CCN1C2CCCCC2N(C(=O)C2C1CCCC2)C,133627-37-9,-4.75,CCN1C2CCCCC2C(=O)N(C)C2CCCCC21
3854,B-9079,1-[3-(phenylmethyl)-3.8-diazabicyclo[3.2.1]octan-8-yl]propan-1-one,MAQBLRFYCNOQJD-UHFFFAOYSA-N,CCC(=O)N1C2CCC1CN(C2)CC1CCCCC1,063978-12-1,-2.811260768,CCC(=O)N1C2CCC1CN(CC1CCCCC1)C2
3855,B-9081,5-tert-butylfuran-2-carboxamide,NFABBAWHYBOFPI-UHFFFAOYSA-N,NC(=O)C1CCC(O1)C(C)(C)C,063956-89-8,-1.933222415,CC(C)(C)C1CCC(C(N)=O)O1
3856,B-9083,(2S)-1-(1H-indol-3-yl)butan-2-amine,ZXUMUPVQYAFTLF-JTQLQIEISA-N,CC[C@@H](CC1C[NH]C2C1CCCC2)N,029854-47-5,-2.5699999,CCC(N)CC1CNC2CCCCC12
3857,B-9084,propan-2-yl 3-[bis(2-chloroethyl)amino]-4-methylbenzoate,RBDRSDNCAYGHIW-UHFFFAOYSA-N,ClCCN(C1CC(CCC1C)C(=O)OC(C)C)CCCl,021447-81-4,-6.087778702,CC(C)OC(=O)C1CCC(C)C(N(CCCl)CCCl)C1
3858,B-9085,3-(4-methoxyphenyl)prop-2-enenitrile,CNBCNHHPIBKYBO-NSCUHMNNSA-N,COC1CCC(CC1)/C=C/C#N,028446-68-6,-2.266907175,COC1CCC(C=CC#N)CC1
3859,B-9086,2-chloro-5-methyl-7.9.10.14b-tetrahydroisoquinolino[2.1-d][1.4]benzodiazepin-6-one,YAQKGZXXQNKEET-UHFFFAOYSA-N,ClC1CCC2C(C1)C1N(CCC3C1CCCC3)CC(=O)N2C,010243-45-5,-4.015255636,CN1C(=O)CN2CCC3CCCCC3C2C2CC(Cl)CCC21
3860,B-9087,4-chloro-N-ethyl-6-(4-methylpiperazin-1-yl)-5-methylsulfanylpyrimidin-2-amine,TUENCHQASOGYGU-UHFFFAOYSA-N,CCNC1NC(N2CCN(CC2)C)C(C(N1)Cl)SC,055477-17-3,-2.037292721,CCNC1NC(Cl)C(SC)C(N2CCN(C)CC2)N1
3861,B-9088,4-chloro-6-(4-methylpiperazin-1-yl)-5-methylsulfanyl-2-morpholin-4-ylpyrimidine,ZAYJPDOJULPTEJ-UHFFFAOYSA-N,CSC1C(Cl)NC(NC1N1CCN(CC1)C)N1CCOCC1,055921-68-1,-2.062183064,CSC1C(Cl)NC(N2CCOCC2)NC1N1CCN(C)CC1
3862,B-9089,(1-methylpyrrolidin-3-yl) N-(2-methylphenyl)carbamate,DTAAMVZDTXCCDV-UHFFFAOYSA-N,CN1CCC(C1)OC(=O)NC1CCCCC1C,033472-72-9,-2.324447456,CC1CCCCC1NC(=O)OC1CCN(C)C1
3863,B-9090,10-[3-(4-methylpiperazin-1-yl)propyl]phenothiazine,WEYVCQFUGFRXOM-UHFFFAOYSA-N,CN1CCN(CC1)CCCN1C2CCCCC2SC2C1CCCC2,005317-37-3,-5.193581531,CN1CCN(CCCN2C3CCCCC3SC3CCCCC32)CC1
3864,B-9092,2-hydroxy-N.N-dimethyl-3-phenylbenzamide,FFHMRUWVKUUENH-UHFFFAOYSA-N,CN(C(=O)C1CCCC(C1O)C1CCCCC1)C,046878-66-4,-2.76240325,CN(C)C(=O)C1CCCC(C2CCCCC2)C1O
3865,B-9094,5-methoxy-3-(2-pyrrolidin-1-ylethyl)-1H-indole,KAASYKNZNPWPQG-UHFFFAOYSA-N,COC1CCC2C(C1)C(CCN1CCCC1)C[NH]2,003949-14-2,-2.383669641,COC1CCC2NCC(CCN3CCCC3)C2C1
3866,B-9095,9-(3-dimethylaminopropyl)-2-methoxythioxanthen-9-ol,LAYVFLWAVIGDLK-UHFFFAOYSA-N,COC1CCC2C(C1)C(O)(CCCN(C)C)C1C(S2)CCCC1,004295-63-0,-5.09128881,COC1CCC2SC3CCCCC3C(O)(CCCN(C)C)C2C1
3867,B-9096,1-amino-2-phenylsulfanylpropan-2-ol,RJYGSOJCBZUNFI-UHFFFAOYSA-N,NCC(SC1CCCCC1)(O)C,063716-02-9,-0.015115744,CC(O)(CN)SC1CCCCC1