,C_ID,Name,InChIKey,SMILES,CAS,LogS,smiles_canon
3982,B-9243,2-(4-chlorophenyl)-4-methylpentane-2.4-diol,SNJDSTGQYRTZJT-UHFFFAOYSA-N,CC(C1CCC(CC1)Cl)(CC(O)(C)C)O,015687-18-0,-3.277949239,CC(C)(O)CC(C)(O)C1CCC(Cl)CC1
3983,B-9244,5-bromo-2-(2-diethylaminoethoxy)-N-phenylbenzamide,LPDBFJGKSBYQRE-UHFFFAOYSA-N,CCN(CCOC1CCC(CC1C(=O)NC1CCCCC1)Br)CC,005014-35-7,-4.805768403,CCN(CC)CCOC1CCC(Br)CC1C(=O)NC1CCCCC1
3984,B-9248,1.1-Diethyl-3-phenylurea,ZFJBSYYIOPSWAE-UHFFFAOYSA-N,CCN(C(=O)NC1CCCCC1)CC,001014-72-8,-2.623977233,CCN(CC)C(=O)NC1CCCCC1
3985,B-9250,3-chloro-5-nitro-2H-indazole,UOWPRWCAMGTPHI-UHFFFAOYSA-N,[O-][N+](=O)C1CC2C(Cl)[NH]NC2CC1,004812-45-7,-2.481490989,O=[N+]([O-])C1CCC2NNC(Cl)C2C1
3986,B-9253,1-(2-methoxy-2H-quinolin-1-yl)ethanone,DNVWXCCXMJHGAD-UHFFFAOYSA-N,COC1C=CC2C(N1C(=O)C)CCCC2,030831-78-8,-1.835254874,COC1C=CC2CCCCC2N1C(C)=O
3987,B-9254,2-(naphthalen-1-ylmethyl)-4.5-dihydro-1H-imidazole,CNIIGCLFLJGOGP-UHFFFAOYSA-N,C1CN=C(N1)CC1CCCC2C1CCCC2,005144-52-5,-4.251284163,C1CCC2C(C1)CCCC2CC1=NCCN1
3988,B-9256,6-morpholin-4-yl-4.4-di(phenyl)heptan-3-one,LOXCOAXRHYDLOW-UHFFFAOYSA-N,CCC(=O)C(C1CCCCC1)(C1CCCCC1)CC(N1CCOCC1)C,000467-84-5,-3.665785639,CCC(=O)C(CC(C)N1CCOCC1)(C1CCCCC1)C1CCCCC1
3989,B-9257,1-amino-3-(3.4-dichlorophenyl)sulfanylpropan-2-ol,LOWQSAJOHJTFNH-UHFFFAOYSA-N,NCC(CSC1CCC(C(C1)Cl)Cl)O,050510-16-2,-1.616334305,NCC(O)CSC1CCC(Cl)C(Cl)C1
3990,B-9258,N-phenylaziridine-1-carboxamide,ZYPIAZBAHRUTGU-UHFFFAOYSA-N,O=C(N1CC1)NC1CCCCC1,013279-22-6,-1.470457085,O=C(NC1CCCCC1)N1CC1
3991,B-9259,3-[(1R)-1-hydroxy-2-methylaminoethyl]phenol,SONNWYBIRXJNDC-VIFPVBQESA-N,CNC[C@@H](C1CCCC(C1)O)O,001416-03-1,0.776742974,CNCC(O)C1CCCC(O)C1
3992,B-9260,N-[4-chloro-2-(4-chlorophenyl)sulfanylphenyl]-3-dimethylaminopropanamide,IYBPCWPWORICBI-UHFFFAOYSA-N,CN(CCC(=O)NC1CCC(CC1SC1CCC(CC1)Cl)Cl)C,063917-35-1,-6.102001147,CN(C)CCC(=O)NC1CCC(Cl)CC1SC1CCC(Cl)CC1
3993,B-9261,N'-(7-chloroquinolin-4-yl)-N.N-diethylpentane-1.4-diamine,WHTVZRBIWZFKQO-UHFFFAOYSA-N,CCN(CCCC(NC1CCNC2C1CCC(C2)Cl)C)CC,058175-86-3,-2.829989138,CCN(CC)CCCC(C)NC1CCNC2CC(Cl)CCC21
3994,B-9262,2-(2-diethylaminoethoxy)-6-methyl-3-propan-2-ylbenzoic acid,BSHLEKSMWWVWPI-UHFFFAOYSA-N,CCN(CCOC1C(CCC(C1C(=O)O)C)C(C)C)CC,053335-18-5,-4.360260516,CCN(CC)CCOC1C(C(C)C)CCC(C)C1C(=O)O
3995,B-9263,Dodecyl 4-hydroxybenzoate,BAYSQTBAJQRACX-UHFFFAOYSA-N,CCCCCCCCCCCCOC(=O)C1CCC(CC1)O,002664-60-0,-7.172486751,CCCCCCCCCCCCOC(=O)C1CCC(O)CC1
3996,B-9264,ethyl 2-[4-[(4-chlorophenyl)methyl]phenoxy]-2-methylbutanoate,YWQGBCXVCXMSLJ-UHFFFAOYSA-N,CCOC(=O)C(OC1CCC(CC1)CC1CCC(CC1)Cl)(CC)C,071549-06-9,-6.96820133,CCOC(=O)C(C)(CC)OC1CCC(CC2CCC(Cl)CC2)CC1
3997,B-9266,methyl (E)-2-cyano-3-phenylprop-2-enoate,XLNFLJOWTRDNCX-JXMROGBWSA-N,COC(=O)/C(=C/C1CCCCC1)/C#N,003695-84-9,-3.01462263,COC(=O)C(C#N)=CC1CCCCC1
3998,B-9267,2-[1-[3-(trifluoromethyl)phenyl]propan-2-ylamino]ethanol,QAFJMZFAQFGVJS-UHFFFAOYSA-N,OCCNC(CC1CCCC(C1)C(F)(F)F)C,031173-14-5,-1.883953099,CC(CC1CCCC(C(F)(F)F)C1)NCCO
3999,B-9268,(2Z)-2-(diethylhydrazinylidene)-1-(4-nitrophenyl)ethanone,VHAXHUSUMSLYQT-LCYFTJDESA-N,CCN(/N=C\C(=O)C1CCC(CC1)[N+](=O)[O-])CC,024342-44-7,-2.731089023,CCN(CC)N=CC(=O)C1CCC([N+](=O)[O-])CC1
4000,B-9269,8-chloro-10-(3-dimethylaminopropyl)phenothiazin-3-ol,HICFFJZGXWEIHN-UHFFFAOYSA-N,CN(CCCN1C2CC(Cl)CCC2SC2C1CCC(C2)O)C,002095-62-7,-5.479542888,CN(C)CCCN1C2CCC(O)CC2SC2CCC(Cl)CC21
4001,B-9270,7.8-dihydroxychromen-2-one,ATEFPOUAMCWAQS-UHFFFAOYSA-N,O=C1CCC2C(O1)C(O)C(CC2)O,000486-35-1,-1.616090034,O=C1CCC2CCC(O)C(O)C2O1
4002,B-9272,2.4-dinitro-1-(phenoxy)benzene,HQFCELSVOFCACS-UHFFFAOYSA-N,[O-][N+](=O)C1CC(CCC1OC1CCCCC1)[N+](=O)[O-],002486-07-9,-3.783567546,O=[N+]([O-])C1CCC(OC2CCCCC2)C([N+](=O)[O-])C1
4003,B-9273,1-(1H-indol-5-yl)ethanone,GOFIUEUUROFVMA-UHFFFAOYSA-N,CC(=O)C1CCC2C(C1)CC[NH]2,053330-94-2,-1.843975479,CC(=O)C1CCC2NCCC2C1
4004,B-9274,N-[5-chloro-2-(4-chlorophenyl)sulfanylphenyl]-3-piperidin-1-ylpropanamide,LFTDPULWBZMYIZ-UHFFFAOYSA-N,O=C(NC1CC(Cl)CCC1SC1CCC(CC1)Cl)CCN1CCCCC1,063916-55-2,-6.784745669,O=C(CCN1CCCCC1)NC1CC(Cl)CCC1SC1CCC(Cl)CC1
4005,B-9275,3-(4-chlorophenyl)-2-sulfanylidene-1.3-thiazolidin-4-one,JRWQAQZBEVDDQC-UHFFFAOYSA-N,ClC1CCC(CC1)N1C(=S)SCC1=O,013037-55-3,-2.05648276,O=C1CSC(=S)N1C1CCC(Cl)CC1
4006,B-9276,2-(4-methylpiperazin-1-yl)-1-(2.2.6.6-tetramethyl-4-phenyl-3H-pyridin-1-yl)ethanone,GVEINSAHFGPQIN-UHFFFAOYSA-N,CN1CCN(CC1)CC(=O)N1C(C)(C)CC(=CC1(C)C)C1CCCCC1,053725-55-6,-4.65989177,CN1CCN(CC(=O)N2C(C)(C)C=C(C3CCCCC3)CC2(C)C)CC1
4007,B-9279,(2.6-dichloropyridin-4-yl)-(1.3-oxazolidin-3-yl)methanone,HUFKLTWJUGBMTC-UHFFFAOYSA-N,ClC1NC(Cl)CC(C1)C(=O)N1COCC1,057803-45-9,-1.429986123,O=C(C1CC(Cl)NC(Cl)C1)N1CCOC1
4008,B-9281,4-chloro-6-(4-methylpiperazin-1-yl)-5-methylsulfanylpyrimidin-2-amine,BQETUQVXROQUPT-UHFFFAOYSA-N,CSC1C(Cl)NC(NC1N1CCN(CC1)C)N,055921-66-9,-0.947447983,CSC1C(Cl)NC(N)NC1N1CCN(C)CC1
4009,B-9282,N-cyclohexyl-2-prop-2-enoxybenzamide,UYODDCKMZFCTPB-UHFFFAOYSA-N,C=CCOC1CCCCC1C(=O)NC1CCCCC1,063887-50-3,-4.850403492,C=CCOC1CCCCC1C(=O)NC1CCCCC1
4010,B-9283,1.1-dioxo-2-propan-2-yl-4H-benzo[e]thiazin-3-one,NAWXKCLMLISGEZ-UHFFFAOYSA-N,CC(N1C(=O)CC2C(S1(=O)=O)CCCC2)C,031848-16-5,-2.12124416,CC(C)N1C(=O)CC2CCCCC2S1(=O)=O
4011,B-9284,(1-ethylpiperidin-3-yl) 2.2-di(phenyl)acetate,KTHVBAZBLKXIHZ-UHFFFAOYSA-N,CCN1CCCC(C1)OC(=O)C(C1CCCCC1)C1CCCCC1,000129-77-1,-3.996437559,CCN1CCCC(OC(=O)C(C2CCCCC2)C2CCCCC2)C1
4012,B-9286,(2S)-2-amino-3-phenylpropan-1-ol,STVVMTBJNDTZBF-VIFPVBQESA-N,OC[C@H](CC1CCCCC1)N,016088-07-6,0.454899629,NC(CO)CC1CCCCC1
4013,B-9287,1-[2-(2.6-dichlorophenyl)ethyl]-6.7-dimethoxy-2-methyl-3.4-dihydro-1H-isoquinoline,LXGKFCALTYIGBW-UHFFFAOYSA-N,COC1CC2C(CC1OC)CCN(C2CCC1C(Cl)CCCC1Cl)C,063937-50-8,-5.669512187,COC1CC2CCN(C)C(CCC3C(Cl)CCCC3Cl)C2CC1OC
4014,B-9289,2-amino-5-chloro-1.3-benzoxazol-6-ol,DICNWOXTWUJPIQ-UHFFFAOYSA-N,NC1OC2C(N1)CC(C(C2)O)Cl,001750-46-5,-1.31973,NC1NC2CC(Cl)C(O)CC2O1
4015,B-9290,2-(4-butoxy-3-methylphenyl)acetic acid,BRBTWQMWSVOGOW-UHFFFAOYSA-N,CCCCOC1CCC(CC1C)CC(=O)O,004547-59-5,-3.441652155,CCCCOC1CCC(CC(=O)O)CC1C
4016,B-9291,ethyl 2-oxoquinoline-1-carboxylate,BHYKHYYQPFOAPJ-UHFFFAOYSA-N,CCOC(=O)N1C(=O)CCC2C1CCCC2,030831-69-7,-1.659300854,CCOC(=O)N1C(=O)CCC2CCCCC21
4017,B-9292,(1-ethylpiperidin-3-yl) N-(2.6-dimethylphenyl)carbamate,GQBBRMZCLIBJIM-UHFFFAOYSA-N,CCN1CCCC(C1)OC(=O)NC1C(C)CCCC1C,031755-17-6,-3.936356634,CCN1CCCC(OC(=O)NC2C(C)CCCC2C)C1
4018,B-9294,(5S)-1-methyl-5-pyridin-3-ylpyrrolidin-2-one,UIKROCXWUNQSPJ-VIFPVBQESA-N,O=C1CC[C@H](N1C)C1CCCNC1,015569-85-4,0.753947292,CN1C(=O)CCC1C1CCCNC1
4019,B-9295,2-tert-butyl-6-[(3-tert-butyl-2-hydroxy-5-propan-2-ylphenyl)methyl]-4-propan-2-ylphenol,RVVVMCHNTQXDPI-UHFFFAOYSA-N,CC(C1CC(CC2CC(CC(C2O)C(C)(C)C)C(C)C)C(C(C1)C(C)(C)C)O)C,093840-39-2,-9.868383899,CC(C)C1CC(CC2CC(C(C)C)CC(C(C)(C)C)C2O)C(O)C(C(C)(C)C)C1
4020,B-9296,4.5-dimethylacridin-9-amine,HIMUQVQWNLSNKM-UHFFFAOYSA-N,CC1CCCC2C1NC1C(C)CCCC1C2N,007132-66-3,-4.9171696,CC1CCCC2C(N)C3CCCC(C)C3NC12
4021,B-9297,dimethyl 5-nitrobenzene-1.3-dicarboxylate,GGTSJKFPGKFLCZ-UHFFFAOYSA-N,COC(=O)C1CC(CC(C1)[N+](=O)[O-])C(=O)OC,013290-96-5,-2.599855837,COC(=O)C1CC(C(=O)OC)CC([N+](=O)[O-])C1
4022,B-9298,(1-ethylpiperidin-3-yl) 2-hydroxy-2.2-di(phenyl)acetate,OJYOTLHNSMYONM-UHFFFAOYSA-N,CCN1CCCC(C1)OC(=O)C(C1CCCCC1)(C1CCCCC1)O,003567-12-2,-3.397217713,CCN1CCCC(OC(=O)C(O)(C2CCCCC2)C2CCCCC2)C1
4023,B-9299,(1-tert-butylpiperidin-3-yl) N-(2.6-dimethylphenyl)carbamate,GNWFVFIRKIFSPN-UHFFFAOYSA-N,O=C(NC1C(C)CCCC1C)OC1CCCN(C1)C(C)(C)C,031755-23-4,-4.883610068,CC1CCCC(C)C1NC(=O)OC1CCCN(C(C)(C)C)C1
4024,B-9300,4-Ethyl-1-methyl-2-nitroimidazole,JHUPSALKEOYJJF-UHFFFAOYSA-N,CCC1CN(C(N1)[N+](=O)[O-])C,023585-79-7,-1.970663286,CCC1CN(C)C([N+](=O)[O-])N1
4025,B-9301,N.N-dimethyl-2-prop-2-enoxybenzamide,FIWNTYXJJOOZFV-UHFFFAOYSA-N,C=CCOC1CCCCC1C(=O)N(C)C,063887-52-5,-2.110900853,C=CCOC1CCCCC1C(=O)N(C)C
4026,B-9302,(1-chloro-3-phenylpropan-2-yl) carbamate,FIVDTHQNVVFVLG-UHFFFAOYSA-N,ClCC(CC1CCCCC1)OC(=O)N,060634-63-1,-2.774630808,NC(=O)OC(CCl)CC1CCCCC1
4027,B-9303,N'-(7-chloro-3-methylquinolin-4-yl)-N.N-diethylpentane-1.4-diamine,AFEAUYYSRPFHIA-UHFFFAOYSA-N,CCN(CCCC(NC1C(C)CNC2C1CCC(C2)Cl)C)CC,000085-10-9,-4.934789883,CCN(CC)CCCC(C)NC1C(C)CNC2CC(Cl)CCC21
4028,B-9306,N.N-diethyl-2-(2-hydroxyethoxy)benzamide,QDOVDSFIOUZBQT-UHFFFAOYSA-N,OCCOC1CCCCC1C(=O)N(CC)CC,063886-92-0,-1.630221116,CCN(CC)C(=O)C1CCCCC1OCCO
4029,B-9308,2-fluoro-N-methyl-N-naphthalen-1-ylacetamide,ADRPZEYTIFWCBC-UHFFFAOYSA-N,FCC(=O)N(C1CCCC2C1CCCC2)C,005903-13-9,-2.809315891,CN(C(=O)CF)C1CCCC2CCCCC21
4030,B-9309,5-Methyl-1.3.4-thiadiazol-2-amine,HMPUHXCGUHDVBI-UHFFFAOYSA-N,CC1NNC(S1)N,000108-33-8,0.150908576,CC1NNC(N)S1
4031,B-9310,1-(4-aminophenyl)hexan-1-one,YDQJFPLRVSPPGE-UHFFFAOYSA-N,CCCCCC(=O)C1CCC(CC1)N,038237-76-2,-2.919928104,CCCCCC(=O)C1CCC(N)CC1
4032,B-9311,2-(4-chlorophenyl)-3-methylbutanoic acid,VTJMSIIXXKNIDJ-UHFFFAOYSA-N,CC(C(C1CCC(CC1)Cl)C(=O)O)C,002012-74-0,-3.259526496,CC(C)C(C(=O)O)C1CCC(Cl)CC1
4033,B-9312,(1S.2S.10S.13R.14S.17S.18S)-2.17.18-trimethyl-6-oxa-5.7-diazapentacyclo[11.7.0.02.10.04.8.014.18]icosa-4.7-dien-17-ol,RGLLOUBXMOGLDQ-IVEVATEUSA-N,C[C@]12CC3NONC3C[C@@H]1CC[C@@H]1[C@@H]2CC[C@]2([C@H]1CC[C@]2(C)O)C,001239-29-8,-5.33872201,CC12CC3NONC3CC1CCC1C2CCC2(C)C1CCC2(C)O
4034,B-9314,1.1-dioxo-2-propyl-4H-benzo[e]thiazin-3-one,TYIYSVLVQMZJDR-UHFFFAOYSA-N,CCCN1C(=O)CC2C(S1(=O)=O)CCCC2,031848-15-4,-2.183023082,CCCN1C(=O)CC2CCCCC2S1(=O)=O
4035,B-9315,3.5-Dimethyl-1H-pyrazol-4-amine,LNVWRBNPXCUYJI-UHFFFAOYSA-N,CC1[NH]NC(C1N)C,005272-86-6,-0.214671959,CC1NNC(C)C1N
4036,B-9316,(E)-N-cyclopropyl-2-methyl-3-phenylbut-2-enamide,VETRAJBMFDGTPT-ZHACJKMWSA-N,O=C(/C(=C(/C1CCCCC1)\C)/C)NC1CC1,056604-88-7,-3.486080656,CC(C(=O)NC1CC1)=C(C)C1CCCCC1
4037,B-9317,1-[3-[(E)-3-phenylprop-2-enyl]-3.9-diazabicyclo[3.3.1]nonan-9-yl]propan-1-one,VVAZXWHTJKJOJO-JXMROGBWSA-N,CCC(=O)N1C2CCCC1CN(C2)C/C=C/C1CCCCC1,063978-05-2,-4.178177274,CCC(=O)N1C2CCCC1CN(CC=CC1CCCCC1)C2
4038,B-9318,1-[10-(3-dimethylaminopropyl)phenothiazin-2-yl]butan-1-one,GRVZGPLWLJJPKF-UHFFFAOYSA-N,CCCC(=O)C1CCC2C(C1)N(CCCN(C)C)C1C(S2)CCCC1,020769-36-2,-6.852401585,CCCC(=O)C1CCC2SC3CCCCC3N(CCCN(C)C)C2C1
4039,B-9319,2-methylsulfanyl-10-(2-piperidin-2-ylethyl)phenothiazine,UFDCSHQNNVQXAS-UHFFFAOYSA-N,CSC1CCC2C(C1)N(CCC1CCCCN1)C1C(S2)CCCC1,010538-32-6,-7.2278331,CSC1CCC2SC3CCCCC3N(CCC3CCCCN3)C2C1
4040,B-9320,6-iodo-2-methyl-3-phenylquinazolin-4-one,JANJEPMDLDHTLL-UHFFFAOYSA-N,IC1CCC2C(C1)C(=O)N(C(N2)C)C1CCCCC1,004449-71-2,-6.067550791,CC1NC2CCC(I)CC2C(=O)N1C1CCCCC1
4041,B-9322,1-(3.4-dimethoxyphenyl)propan-2-ol,KWJDGWGMDAQESJ-UHFFFAOYSA-N,COC1CC(CCC1OC)CC(O)C,019578-92-8,-1.513926341,COC1CCC(CC(C)O)CC1OC
4042,B-9323,(4-chlorophenyl)-phenyl-pyridin-4-ylmethanol,XQYQSCYDDPMDFG-UHFFFAOYSA-N,ClC1CCC(CC1)C(C1CCNCC1)(C1CCCCC1)O,003737-16-4,-4.12264337,OC(C1CCCCC1)(C1CCNCC1)C1CCC(Cl)CC1
4043,B-9326,1-[1-[(2-chlorophenyl)methyl]pyrrol-2-yl]-2-(di(butan-2-yl)amino)ethanol,ZILPIBYANAFGMS-UHFFFAOYSA-N,CCC(N(C(CC)C)CC(C1CCCN1CC1CCCCC1Cl)O)C,021363-18-8,-5.350858699,CCC(C)N(CC(O)C1CCCN1CC1CCCCC1Cl)C(C)CC
4044,B-9328,(4R.4aR.7aS.12bS)-3-methyl-2.4.4a.5.6.7.7a.13-octahydro-1H-4.12-methanobenzofuro[3.2-e]isoquinolin-9-ol,LNNWVNGFPYWNQE-GMIGKAJZSA-N,CN1CC[C@@]23[C@@H]4[C@H]1CC1C3C(O[C@H]2CCC4)C(CC1)O,000427-00-9,-2.27973095,CN1CCC23C4CCCC2C1CC1CCC(O)C(O4)C13
4045,B-9329,3-quinolin-2-yloxypropane-1.2-diol,DHGDNDUPFCKHED-UHFFFAOYSA-N,OCC(COC1CCC2C(N1)CCCC2)O,063991-82-2,-2.050885202,OCC(O)COC1CCC2CCCCC2N1
4046,B-9330,5-(4-chlorophenyl)-2.3-dihydroimidazo[1.2-b]isoindol-5-ol,ZPXSCAKFGYXMGA-UHFFFAOYSA-N,ClC1CCC(CC1)C1(O)C2CCCCC2C2=NCCN12,022232-71-9,-5.267496736,OC1(C2CCC(Cl)CC2)C2CCCCC2C2=NCCN21
4047,B-9331,2-(phenoxy)propanoic acid,SXERGJJQSKIUIC-UHFFFAOYSA-N,CC(C(=O)O)OC1CCCCC1,001912-21-6,-1.509605156,CC(OC1CCCCC1)C(=O)O
4048,B-9332,4-(6-methyl-1.3-benzothiazol-2-yl)aniline,XRTJYEIMLZALBD-UHFFFAOYSA-N,NC1CCC(CC1)C1NC2C(S1)CC(CC2)C,000092-36-4,-3.6800001,CC1CCC2NC(C3CCC(N)CC3)SC2C1
4049,B-9333,methyl 3-[bis(2-chloroethyl)amino]-4-methylbenzoate,RMYQWYZCXZASAT-UHFFFAOYSA-N,ClCCN(C1CC(CCC1C)C(=O)OC)CCCl,018583-88-5,-5.106647591,COC(=O)C1CCC(C)C(N(CCCl)CCCl)C1
4050,B-9334,3-methyl-3-phenylbutanoic acid,JTZZMXVIHNHASS-UHFFFAOYSA-N,OC(=O)CC(C1CCCCC1)(C)C,001010-48-6,-2.569199477,CC(C)(CC(=O)O)C1CCCCC1
4051,B-9335,[(1R.5S)-8-methyl-8-azabicyclo[3.2.1]octan-3-yl] 2-phenylprop-2-enoate,WPUIZWXOSDVQJU-XYPWUTKMSA-N,CN1[C@@H]2CC[C@H]1CC(C2)OC(=O)C(=C)C1CCCCC1,000500-55-0,-2.892841031,C=C(C(=O)OC1CC2CCC(C1)N2C)C1CCCCC1
4052,B-9336,1-(1.2.4.4a.5.6-hexahydropyrazino[4.3-a]quinolin-3-yl)ethanone,SAPAWHGNIMQFMR-UHFFFAOYSA-N,CC(=O)N1CCN2C(C1)CCC1C2CCCC1,021530-69-8,-2.660746696,CC(=O)N1CCN2C(CCC3CCCCC32)C1
4053,B-9337,N.N-dimethyl-4-(2-quinolin-4-ylethenyl)aniline,CIXDQQGMRYRUQA-JXMROGBWSA-N,CN(C1CCC(CC1)/C=C/C1CCNC2C1CCCC2)C,066796-38-1,-5.344910189,CN(C)C1CCC(C=CC2CCNC3CCCCC23)CC1
4054,B-9339,2-Phenylethylhydrazine,RMUCZJUITONUFY-UHFFFAOYSA-N,NNCCC1CCCCC1,000051-71-8,-0.670277741,NNCCC1CCCCC1
4055,B-9340,2-[2-(4-chlorophenyl)-1.3-benzoxazol-5-yl]propanenitrile,RBGOLZYAUJDSGL-UHFFFAOYSA-N,N#CC(C1CCC2C(C1)NC(O2)C1CCC(CC1)Cl)C,051234-36-7,-5.039747564,CC(C#N)C1CCC2OC(C3CCC(Cl)CC3)NC2C1
4056,B-9342,2.6-dibutoxy-N.N'-dimethylpyridine-4-carbohydrazide,QTWLWIYUQAAJLY-UHFFFAOYSA-N,CCCCOC1NC(OCCCC)CC(C1)C(=O)N(NC)C,057803-56-2,-4.426076357,CCCCOC1CC(C(=O)N(C)NC)CC(OCCCC)N1
4057,B-9344,(1-propan-2-ylpyrrolidin-3-yl) N-(2.6-dimethylphenyl)carbamate,CEQUUCYPMIWLLU-UHFFFAOYSA-N,O=C(NC1C(C)CCCC1C)OC1CCN(C1)C(C)C,031755-12-1,-3.873304888,CC1CCCC(C)C1NC(=O)OC1CCN(C(C)C)C1
4058,B-9346,1-butoxy-3-(phenoxy)propan-2-ol,WBLXZPHICYCDGN-UHFFFAOYSA-N,CCCCOCC(COC1CCCCC1)O,003102-00-9,-1.723873322,CCCCOCC(O)COC1CCCCC1
4059,B-9348,(7-chloroquinolin-4-yl)hydrazine,TWJRTPKEHPDDPG-UHFFFAOYSA-N,NNC1CCNC2C1CCC(C2)Cl,023834-14-2,-1.971011272,NNC1CCNC2CC(Cl)CCC12
4060,B-9349,3-(4-methyl-2-prop-2-enylphenoxy)propane-1.2-diol,ZPOGTLCICRJACI-UHFFFAOYSA-N,C=CCC1CC(C)CCC1OCC(CO)O,063905-23-7,-3.213369295,C=CCC1CC(C)CCC1OCC(O)CO
4061,B-9350,2-[(4-chlorophenyl)methyl]-3a.4.5.6.7.7a-hexahydro-4.7-epoxyisoindole-1.3-dione,QVAJECHSUTYOLF-UHFFFAOYSA-N,O=C1C2C3CCC(C2C(=O)N1CC1CCC(CC1)Cl)O3,007588-32-1,-2.368072553,O=C1C2C3CCC(O3)C2C(=O)N1CC1CCC(Cl)CC1
4062,B-9351,(S)-[(4S.5R.7R)-5-ethyl-1-azabicyclo[2.2.2]octan-7-yl]-(6-methoxyquinolin-4-yl)methanol,LJOQGZACKSYWCH-LHHVKLHASA-N,CC[C@H]1CN2CC[C@H]1C[C@@H]2[C@H](C1CCNC2C1CC(OC)CC2)O,001435-55-8,-4.10794497,CCC1CN2CCC1CC2C(O)C1CCNC2CCC(OC)CC21
4063,B-9352,bis(4-chlorophenyl)-pyridin-3-ylmethanol,NBNTWDUNCHRWMT-UHFFFAOYSA-N,ClC1CCC(CC1)C(C1CCC(CC1)Cl)(C1CCCNC1)O,017781-31-6,-4.924395054,OC(C1CCC(Cl)CC1)(C1CCC(Cl)CC1)C1CCCNC1
4064,B-9353,ethyl 2-ethyl-2-(hydroxy-phenylmethyl)butanoate,FWOOQMMHLXHORO-UHFFFAOYSA-N,CCC(C(C1CCCCC1)O)(C(=O)OCC)CC,059697-80-2,-3.401140394,CCOC(=O)C(CC)(CC)C(O)C1CCCCC1
4065,B-9358,1-phenyl-2-(pyridin-2-ylamino)ethanol,ZEAJXCPGHPJVNP-UHFFFAOYSA-N,OC(C1CCCCC1)CNC1CCCCN1,000553-69-5,-2.186071918,OC(CNC1CCCCN1)C1CCCCC1
4066,B-9359,methyl 2-(3-dimethylaminopropoxy)-6-methyl-3-propan-2-ylbenzoate,FGVITAFIUFLYQJ-UHFFFAOYSA-N,COC(=O)C1C(C)CCC(C1OCCCN(C)C)C(C)C,052073-31-1,-3.83400203,COC(=O)C1C(C)CCC(C(C)C)C1OCCCN(C)C
4067,B-9360,2-propanoylindene-1.3-dione,KNOZCKSSLOTBPA-UHFFFAOYSA-N,CCC(=O)C1C(=O)C2C(C1=O)CCCC2,002740-25-2,-2.384634431,CCC(=O)C1C(=O)C2CCCCC2C1=O
4068,B-9361,2-methyl-1.1-dioxo-4H-benzo[e]thiazin-3-one,GGPCERYTJXDGOH-UHFFFAOYSA-N,O=C1CC2CCCCC2S(=O)(=O)N1C,029209-01-6,-1.140074448,CN1C(=O)CC2CCCCC2S1(=O)=O
4069,B-9362,3-Phenyl-1.2.4-oxadiazol-5-amine,DZHVJUCGKWKRTO-UHFFFAOYSA-N,NC1ONC(N1)C1CCCCC1,003663-37-4,-1.390364198,NC1NC(C2CCCCC2)NO1
4070,B-9363,S-(2-diethylaminoethyl) (di(phenyl)amino)methanethioate,BZGIPVGCJGXQTA-UHFFFAOYSA-N,CCN(CCSC(=O)N(C1CCCCC1)C1CCCCC1)CC,003735-90-8,-3.173880957,CCN(CC)CCSC(=O)N(C1CCCCC1)C1CCCCC1
4071,B-9364,1-(2-chlorophenyl)propyl carbamate,VCZXDPUECVELRF-UHFFFAOYSA-N,CCC(C1CCCCC1Cl)OC(=O)N,001690-33-1,-3.109617169,CCC(OC(N)=O)C1CCCCC1Cl
4072,B-9365,3-(3-dimethylaminopropyl)-3-phenyl-2-benzofuran-1-one,BHDBEMWNWGBDBB-UHFFFAOYSA-N,CN(CCCC1(OC(=O)C2C1CCCC2)C1CCCCC1)C,037401-68-6,-2.899841072,CN(C)CCCC1(C2CCCCC2)OC(=O)C2CCCCC21
4073,B-9366,5-dimethylamino-1.6-dimethyl-3-(phenylmethyl)pyrimidine-2.4-dione,QNVOFASLYHPBMU-UHFFFAOYSA-N,CN(C1C(=O)N(CC2CCCCC2)C(=O)N(C1C)C)C,032150-51-9,-2.750060565,CC1C(N(C)C)C(=O)N(CC2CCCCC2)C(=O)N1C
4074,B-9367,4-methoxy-2-[3-(1.3-thiazolidin-3-yl)propoxy]quinoline,PQSSZNQPCOJKJV-UHFFFAOYSA-N,COC1CC(OCCCN2CSCC2)NC2C1CCCC2,041288-12-4,-2.907114697,COC1CC(OCCCN2CCSC2)NC2CCCCC21
4075,B-9368,1-ethenyl-5-methyl-2-nitroimidazole,UCRJJHVREFVPPM-UHFFFAOYSA-N,[O-][N+](=O)C1NCC(N1C=C)C,062144-03-0,-1.840699233,C=CN1C(C)CNC1[N+](=O)[O-]
4076,B-9370,1-(4-methoxyphenyl)-4-(4-phenyl-3.6-dihydro-2H-pyridin-1-yl)butan-1-one,PRKMKMJCQDPUKG-UHFFFAOYSA-N,COC1CCC(CC1)C(=O)CCCN1CCC(=CC1)C1CCCCC1,003565-47-7,-4.782114135,COC1CCC(C(=O)CCCN2CC=C(C3CCCCC3)CC2)CC1
4077,B-9373,1.5-dimethyl-4-methylamino-2-phenylpyrazol-3-one,JILCEWWZTBBOFS-UHFFFAOYSA-N,CNC1C(C)N(N(C1=O)C1CCCCC1)C,000519-98-2,-1.122159914,CNC1C(=O)N(C2CCCCC2)N(C)C1C
4078,B-9376,4-(4-hydroxy-3-methoxyphenyl)but-3-en-2-one,AFWKBSMFXWNGRE-ONEGZZNKSA-N,COC1CC(/C=C/C(=O)C)CCC1O,001080-12-2,-1.784097934,COC1CC(C=CC(C)=O)CCC1O
4079,B-9377,5-cyclohexyl-6-hydroxy-2.3-dihydro-1H-indene-1-carboxylic acid,WSKCLYSPBODMHR-UHFFFAOYSA-N,OC(=O)C1CCC2C1CC(O)C(C2)C1CCCCC1,028998-48-3,-4.067224377,O=C(O)C1CCC2CC(C3CCCCC3)C(O)CC21
4080,B-9379,(1-ethylpiperidin-3-yl) N-(4-methoxyphenyl)carbamate,PWKLWQJZGQYOAQ-UHFFFAOYSA-N,CCN1CCCC(C1)OC(=O)NC1CCC(CC1)OC,033531-51-0,-3.084758848,CCN1CCCC(OC(=O)NC2CCC(OC)CC2)C1
4081,B-9380,5-(2-methoxypropan-2-yl)-1-methyl-2-nitroimidazole,VNTUXFDKBZQALW-UHFFFAOYSA-N,COC(C1CNC(N1C)[N+](=O)[O-])(C)C,064157-82-0,-1.962851423,COC(C)(C)C1CNC([N+](=O)[O-])N1C
4082,B-9381,4-bromo-N.N-dimethylbenzenesulfonamide,NQAUNPZZVCXYEJ-UHFFFAOYSA-N,CN(S(=O)(=O)C1CCC(CC1)Br)C,000707-60-8,-2.781347788,CN(C)S(=O)(=O)C1CCC(Br)CC1
4083,B-9382,5-methyl-2-(phenylmethyl)-4H-pyrazol-3-one,MEDQPHZEAUFCTK-UHFFFAOYSA-N,O=C1CC(=NN1CC1CCCCC1)C,000946-23-6,-2.400207025,CC1=NN(CC2CCCCC2)C(=O)C1
4084,B-9383,2-(4-methyl-1.3-thiazol-5-yl)acetic acid,BHYWREOEQYCKSC-UHFFFAOYSA-N,CC1NCSC1CC(=O)O,005255-33-4,-0.786483502,CC1NCSC1CC(=O)O
4085,B-9384,1-morpholin-4-yl-2-phenylethanethione,NYFHVSARWRNBEM-UHFFFAOYSA-N,S=C(N1CCOCC1)CC1CCCCC1,005112-84-5,-1.8135378,S=C(CC1CCCCC1)N1CCOCC1
4086,B-9388,N-[4-chloro-2-(4-chlorophenyl)sulfanylphenyl]-3-pyrrolidin-1-ylpropanamide,GHOXUIXRTCVANK-UHFFFAOYSA-N,O=C(NC1CCC(CC1SC1CCC(CC1)Cl)Cl)CCN1CCCC1,063716-98-3,-5.852679983,O=C(CCN1CCCC1)NC1CCC(Cl)CC1SC1CCC(Cl)CC1
4087,B-9389,2-(3H-imidazol-4-yl)-N.N-dimethylethanamine,ZJDIMSMQXMWMCF-UHFFFAOYSA-N,CN(CCC1[NH]CNC1)C,013197-56-3,0.8359029,CN(C)CCC1CNCN1
4088,B-9390,2-Amino-3.5-diiodobenzoic acid,RFIBDMCPIREZKC-UHFFFAOYSA-N,IC1CC(I)C(C(C1)C(=O)O)N,000609-86-9,-5.191932552,NC1C(I)CC(I)CC1C(=O)O
4089,B-9391,1-methylpyridine-2-thione,UHOAUPKGWPQNDM-UHFFFAOYSA-N,S=C1CCCCN1C,002044-27-1,-0.361967271,CN1CCCCC1=S
4090,B-9392,2-ethyl-2-phenyl-4-piperidin-1-ylbutanamide,SSGLLHWEINBKAA-UHFFFAOYSA-N,CCC(C1CCCCC1)(C(=O)N)CCN1CCCCC1,002977-21-1,-3.734246236,CCC(CCN1CCCCC1)(C(N)=O)C1CCCCC1
4091,B-9393,(8-methyl-3.8-diazabicyclo[3.2.1]octan-3-yl)-pyridin-4-ylmethanone,LPFJBUTXCFPAMS-UHFFFAOYSA-N,CN1C2CCC1CN(C2)C(=O)C1CCNCC1,063990-64-7,-2.083140388,CN1C2CCC1CN(C(=O)C1CCNCC1)C2
4092,B-9395,2-(2-dimethylaminoethyl)-3-methyl-2-naphthalen-1-ylpentanamide,BZQRMOJOFMIRFL-UHFFFAOYSA-N,CCC(C(C1CCCC2C1CCCC2)(C(=O)N)CCN(C)C)C,001505-91-5,-4.629686284,CCC(C)C(CCN(C)C)(C(N)=O)C1CCCC2CCCCC21
4093,B-9397,1-[10-(3-dimethylaminopropyl)phenothiazin-2-yl]ethanone,NOSIYYJFMPDDSA-UHFFFAOYSA-N,CN(CCCN1C2CCCCC2SC2C1CC(CC2)C(=O)C)C,000061-00-7,-3.565463273,CC(=O)C1CCC2SC3CCCCC3N(CCCN(C)C)C2C1
4094,B-9399,2-methoxycyclohepta-2.4.6-trien-1-one,IQYJSKNHDZZDGA-UHFFFAOYSA-N,COC1CCCCCC1=O,002161-40-2,-1.092624929,COC1CCCCCC1=O
4095,B-9400,(1-ethylpiperidin-3-yl) 2-cyclopentyl-2-hydroxy-2-phenylacetate,OAWRXBDGRIPUMA-UHFFFAOYSA-N,CCN1CCCC(C1)OC(=O)C(C1CCCCC1)(C1CCCC1)O,001910-67-4,-3.606082715,CCN1CCCC(OC(=O)C(O)(C2CCCCC2)C2CCCC2)C1