,C_ID,Name,InChIKey,SMILES,CAS,LogS,smiles_canon
2641,B-7401,(8R.9S.13S.14S.17R)-17-hydroxy-5&apos.5&apos.13-trimethylspiro[1.2.4.6.7.8.9.11.12.14.15.16-dodecahydrocyclopenta[a]phenanthrene-3.2&apos-1.3-dioxane]-17-carbonitrile,VHPYGHVYPBYDMS-IDNQLYMWSA-N,C[C@]12CC[C@H]3[C@H]([C@@H]1CC[C@@]2(C#N)O)CCC4=C3CCC5(C4)OCC(CO5)(C)C,094291-97-1,-4.409933123,CC1(C)COC2(CCC3=C(CCC4C3CCC3(C)C4CCC3(O)C#N)C2)OC1
2642,B-7402,(2-methyl-1-oxo-1-prop-2-enoxypropan-2-yl) 2-chloro-5-nitrobenzoate,WPERCSAKEFXBRC-UHFFFAOYSA-N,CC(C)(C(=O)OCC=C)OC(=O)C1=C(C=CC(=C1)[N+](=O)[O-])Cl,174489-76-0,-4.436322628,C=CCOC(=O)C(C)(C)OC(=O)c1cc([N+](=O)[O-])ccc1Cl
2643,B-7403,3-trimethoxysilylpropyl (2E.4E)-hexa-2.4-dienoate,BEEJHAQLEWGNOO-SBIWHPGTSA-N,C/C=C/C=C/C(=O)OCCC[Si](OC)(OC)OC,163802-53-7,-2.792944111,CC=CC=CC(=O)OCCC[Si](OC)(OC)OC
2644,B-7404,octanedinitrile,BTNXBLUGMAMSSH-UHFFFAOYSA-N,C(CCCC#N)CCC#N,000629-40-3,-1.081066776,N#CCCCCCCC#N
2645,B-7405,[3-(2-methylaziridine-1-carbonyl)phenyl]-(2-methylaziridin-1-yl)methanone,PQJYXFVJBSRUPG-UHFFFAOYSA-N,CC1CN1C(=O)C2=CC(=CC=C2)C(=O)N3CC3C,007652-64-4,-3.676103083,CC1CN1C(=O)c1cccc(C(=O)N2CC2C)c1
2646,B-7406,N-phenyl-N-[1-(phenylmethyl)piperidin-4-yl]propanamide,POQDXIFVWVZVML-UHFFFAOYSA-N,CCC(=O)N(C1CCN(CC1)CC2=CC=CC=C2)C3=CC=CC=C3,001474-02-8,-3.415039619,CCC(=O)N(c1ccccc1)C1CCN(Cc2ccccc2)CC1
2647,B-7407,4-(1-phenylethyl)benzene-1.3-diol,PQSXNIMHIHYFEE-UHFFFAOYSA-N,CC(C1=CC=CC=C1)C2=C(C=C(C=C2)O)O,000085-27-8,-1.745487263,CC(c1ccccc1)c1ccc(O)cc1O
2648,B-7408,ethyl 5.5-di(phenyl)-4H-1.2-oxazole-3-carboxylate,MWKVXOJATACCCH-UHFFFAOYSA-N,CCOC(=O)C1=NOC(C1)(C2=CC=CC=C2)C3=CC=CC=C3,163520-33-0,-5.445012288,CCOC(=O)C1=NOC(c2ccccc2)(c2ccccc2)C1
2649,B-7409,2-(Trifluoromethyl)benzenesulfonamide,AFFPZJFLSDVZBV-UHFFFAOYSA-N,C1=CC=C(C(=C1)C(F)(F)F)S(=O)(=O)N,001869-24-5,-2.790246786,NS(=O)(=O)c1ccccc1C(F)(F)F
2650,B-7410,3-nitrobenzene-1.2-dicarbonitrile,UZJZIZFCQFZDHP-UHFFFAOYSA-N,C1=CC(=C(C(=C1)[N+](=O)[O-])C#N)C#N,051762-67-5,-2.937342333,N#Cc1cccc([N+](=O)[O-])c1C#N
2651,B-7411,16-azahexacyclo[12.6.2.12.6.011.21.018.22.010.23]tricosa-1(21).2.4.6(23).7.9.11.13.18(22).19-decaene-15.17-dione,LBOJSACZVLWUHN-UHFFFAOYSA-N,C1=CC2=C3C(=C1)C4=C5C(=CC=C6C5=C(C=C4)C(=O)NC6=O)C3=CC=C2,033955-44-1,-6.015595527,O=C1NC(=O)c2ccc3c4cccc5cccc(c6ccc1c2c63)c54
2652,B-7412,3-amino-2.2-dimethylpropanamide,HKQZJXVIXAPOPZ-UHFFFAOYSA-N,CC(C)(CN)C(=O)N,324763-51-1,0.845558081,CC(C)(CN)C(N)=O
2653,B-7413,N-Ethyl-4-methylbenzenesulfonamide,OHPZPBNDOVQJMH-UHFFFAOYSA-N,CCNS(=O)(=O)C1=CC=C(C=C1)C,008047-99-2,-2.62733796,CCNS(=O)(=O)c1ccc(C)cc1
2654,B-7415,[(E)-hex-3-enyl] 2-hydroxybenzoate,IEPWIPZLLIOZLU-ONEGZZNKSA-N,CC/C=C/CCOC(=O)C1=CC=CC=C1O,065405-77-8,-4.643980615,CCC=CCCOC(=O)c1ccccc1O
2655,B-7416,ethyl (2R)-2-(4-hydroxyphenoxy)propanoate,ILYSHPJWNMPBPE-MRVPVSSYSA-N,CCOC(=O)[C@@H](C)OC1=CC=C(C=C1)O,071301-98-9,-1.351881427,CCOC(=O)C(C)Oc1ccc(O)cc1
2656,B-7417,ethyl [(1-oxo-1-phenylpropan-2-ylidene)amino] carbonate,YDMWUMUNUXUYKT-UKTHLTGXSA-N,CCOC(=O)O/N=C(\C)/C(=O)C1=CC=CC=C1,065894-76-0,-3.264299355,CCOC(=O)ON=C(C)C(=O)c1ccccc1
2657,B-7418,4-propan-2-ylbenzenesulfonic acid,CVLHGLWXLDOELD-UHFFFAOYSA-N,CC(C)C1=CC=C(C=C1)S(=O)(=O)O,016066-35-6,0.612766295,CC(C)c1ccc(S(=O)(=O)O)cc1
2658,B-7419,N-(2-Hydroxyethyl)hexadecanamide,HXYVTAGFYLMHSO-UHFFFAOYSA-N,CCCCCCCCCCCCCCCC(=O)NCCO,000544-31-0,-4.873246364,CCCCCCCCCCCCCCCC(=O)NCCO
2659,B-7420,1-(5-bromo-3-methyl-2-methylsulfanylimidazol-4-yl)-2-(5-methylpyrazin-2-yl)propan-1-one,PNONVVPYXYAPBY-UHFFFAOYSA-N,CC1=CN=C(C=N1)C(C)C(=O)C2=C(N=C(N2C)SC)Br,001187-93-5,-4.052225611,CSc1nc(Br)c(C(=O)C(C)c2cnc(C)cn2)n1C
2660,B-7421,4-(4.6.8-trimethylnonan-3-yl)benzenesulfonic acid,IMRAQEPVUVPOHG-UHFFFAOYSA-N,CCC(C1=CC=C(C=C1)S(=O)(=O)O)C(C)CC(C)CC(C)C,068608-88-8,-0.092928735,CCC(c1ccc(S(=O)(=O)O)cc1)C(C)CC(C)CC(C)C
2661,B-7422,3-Amino-4-chlorobenzamide,QHMDKGRWJVOUFU-UHFFFAOYSA-N,C1=CC(=C(C=C1C(=O)N)N)Cl,019694-10-1,-1.976701685,NC(=O)c1ccc(Cl)c(N)c1
2662,B-7423,dimethyl 2-[(4-methoxyphenyl)methylidene]propanedioate,JMFYZMAVUHNCPW-UHFFFAOYSA-N,COC1=CC=C(C=C1)C=C(C(=O)OC)C(=O)OC,007443-25-6,-3.439333735,COC(=O)C(=Cc1ccc(OC)cc1)C(=O)OC
2663,B-7424,methyl (6aR.9R.10aS)-10a-methoxy-7-methyl-4.6.6a.8.9.10-hexahydroindolo[4.3-fg]quinoline-9-carboxylate,SCWPBCNOFOVVGZ-DWQUBVKVSA-N,CN1C[C@@H](C[C@]2([C@H]1CC3=CNC4=CC=CC2=C34)OC)C(=O)OC,023495-64-9,-2.625886671,COC(=O)C1CN(C)C2Cc3c[nH]c4cccc(c34)C2(OC)C1
2664,B-7425,4-[bis(4-dimethylaminophenyl)methyl]-N.N-dimethylaniline,OAZWDJGLIYNYMU-UHFFFAOYSA-N,CN(C)C1=CC=C(C=C1)C(C2=CC=C(C=C2)N(C)C)C3=CC=C(C=C3)N(C)C,000603-48-5,-5.458393762,CN(C)c1ccc(C(c2ccc(N(C)C)cc2)c2ccc(N(C)C)cc2)cc1
2665,B-7426,1-[2-[2-[2-(2-butoxyethoxy)ethoxymethoxy]ethoxy]ethoxy]butane,DKWHHTWSTXZKDW-UHFFFAOYSA-N,CCCCOCCOCCOCOCCOCCOCCCC,000143-29-3,-1.301634227,CCCCOCCOCCOCOCCOCCOCCCC
2666,B-7427,1H-3.1-benzoxazine-2.4-dione,TXJUTRJFNRYTHH-UHFFFAOYSA-N,C1=CC=C2C(=C1)C(=O)OC(=O)N2,000118-48-9,-2.735418971,O=c1[nH]c2ccccc2c(=O)o1
2667,B-7428,2-dimethylamino-1-(4-morpholin-4-ylphenyl)-2-(phenylmethyl)butan-1-one,UHFFVFAKEGKNAQ-UHFFFAOYSA-N,CCC(CC1=CC=CC=C1)(C(=O)C2=CC=C(C=C2)N3CCOCC3)N(C)C,119313-12-1,-4.793224574,CCC(Cc1ccccc1)(C(=O)c1ccc(N2CCOCC2)cc1)N(C)C
2668,B-7429,1.7-di(butanoyloxy)octan-4-yl butanoate,CBYWYTIHGQZVDT-UHFFFAOYSA-N,CCCC(=O)OCCCC(CCC(C)OC(=O)CCC)OC(=O)CCC,006658-48-6,-5.130218128,CCCC(=O)OCCCC(CCC(C)OC(=O)CCC)OC(=O)CCC
2669,B-7430,(16-hydroxy-7.11-dimethyl-6-oxo-14-pentacyclo[8.8.0.02.7.03.5.011.16]octadec-17-enyl) 2.2-dimethylpropanoate,FFDPCMQAAUBAQI-UHFFFAOYSA-N,CC12CCC(CC1(C=CC3C2CCC4(C3C5CC5C4=O)C)O)OC(=O)C(C)(C)C,082543-14-4,-4.824513075,CC(C)(C)C(=O)OC1CCC2(C)C3CCC4(C)C(=O)C5CC5C4C3C=CC2(O)C1
2670,B-7431,14-methyl-10-(4-methylanilino)-14-azatetracyclo[7.7.1.02.7.013.17]heptadeca-1(16).2.4.6.9.11.13(17)-heptaene-8.15-dione,VJUKWPOWHJITTP-UHFFFAOYSA-N,CC1=CC=C(C=C1)NC2=C3C4=C(C=C2)N(C(=O)C=C4C5=CC=CC=C5C3=O)C,000081-39-0,-5.10444909,Cc1ccc(Nc2ccc3c4c(cc(=O)n3C)-c3ccccc3C(=O)c24)cc1
2671,B-7432,4-[2-(4-aminophenyl)ethyl]aniline,UHNUHZHQLCGZDA-UHFFFAOYSA-N,C1=CC(=CC=C1CCC2=CC=C(C=C2)N)N,000621-95-4,-3.645696073,Nc1ccc(CCc2ccc(N)cc2)cc1
2672,B-7433,(5-methyl-1H-imidazol-4-yl)methanol,AXJZCJSXNZZMDU-UHFFFAOYSA-N,CC1=C(N=CN1)CO,029636-87-1,0.26833764,Cc1[nH]cnc1CO
2673,B-7434,5-[3-(1-ethoxyethoxy)-3-methylpent-4-en-1-ynyl]-2.4.6.6-tetramethyl-7.7a-dihydro-1.3-benzodioxol-5-ol,RZEIWRMMULENKX-UHFFFAOYSA-N,CCOC(C)OC(C)(C=C)C#CC1(C(=C2C(CC1(C)C)OC(O2)C)C)O,162691-59-0,-2.607455023,C=CC(C)(C#CC1(O)C(C)=C2OC(C)OC2CC1(C)C)OC(C)OCC
2674,B-7435,2-(4-bromo-3-hydroxyquinolin-2-yl)indene-1.3-dione,DVBLPJWQXDCAKU-UHFFFAOYSA-N,C1=CC=C2C(=C1)C(=O)C(C2=O)C3=NC4=CC=CC=C4C(=C3O)Br,010319-14-9,-4.867097148,O=C1c2ccccc2C(=O)C1c1nc2ccccc2c(Br)c1O
2675,B-7436,2-ethylhexyl 2-cyano-3.3-diphenylprop-2-enoate,FMJSMJQBSVNSBF-UHFFFAOYSA-N,CCCCC(CC)COC(=O)C(=C(C1=CC=CC=C1)C2=CC=CC=C2)C#N,006197-30-4,-6.95604831,CCCCC(CC)COC(=O)C(C#N)=C(c1ccccc1)c1ccccc1
2676,B-7437,1-(4-methoxyphenyl)-2-(3-methoxyphenyl)sulfanylethanone,CXSKVBXJDSVPKS-UHFFFAOYSA-N,COC1=CC=C(C=C1)C(=O)CSC2=CC=CC(=C2)OC,063675-73-0,-5.28471412,COc1ccc(C(=O)CSc2cccc(OC)c2)cc1
2677,B-7438,1-[3-(2-methoxy-5-nitrophenoxy)propyl]-4-methylpiperazine,GIODEEXALCHTQP-UHFFFAOYSA-N,CN1CCN(CC1)CCCOC2=C(C=CC(=C2)[N+](=O)[O-])OC,846023-54-9,-0.809229099,COc1ccc([N+](=O)[O-])cc1OCCCN1CCN(C)CC1
2678,B-7439,1.4-diAm-2.3-diPhO-9.10-anthracenedione,NZTGGRGGJFCKGG-UHFFFAOYSA-N,C1=CC=C(C=C1)OC2=C(C3=C(C(=C2OC4=CC=CC=C4)N)C(=O)C5=CC=CC=C5C3=O)N,006408-72-6,-8.271656595,Nc1c(Oc2ccccc2)c(Oc2ccccc2)c(N)c2c1C(=O)c1ccccc1C2=O
2679,B-7440,3-(phenylmethyl)-3.9-diazaspiro[5.5]undecane-8.10-dione,MZOUQZZYZKEBKL-UHFFFAOYSA-N,C1CN(CCC12CC(=O)NC(=O)C2)CC3=CC=CC=C3,019035-79-1,-3.108785459,O=C1CC2(CCN(Cc3ccccc3)CC2)CC(=O)N1
2680,B-7441,2-[2-(6-methoxy-3.4-dihydro-2H-naphthalen-1-ylidene)ethyl]-2-methylcyclopentane-1.3-dione,PHYRXYUDHILFBN-UHFFFAOYSA-N,CC1(C(=O)CCC1=O)CC=C2CCCC3=C2C=CC(=C3)OC,000899-79-6,-4.828367439,COc1ccc2c(c1)CCCC2=CCC1(C)C(=O)CCC1=O
2681,B-7442,N-(4-ethoxyphenyl)-3-hydroxynaphthalene-2-carboxamide,FYJKEJZGNQVNLC-UHFFFAOYSA-N,CCOC1=CC=C(C=C1)NC(=O)C2=CC3=CC=CC=C3C=C2O,004711-68-6,-5.311539415,CCOc1ccc(NC(=O)c2cc3ccccc3cc2O)cc1
2682,B-7444,5-nitrosopyrimidine-2.4.6-triamine,XLQQJSWJHHKLOK-UHFFFAOYSA-N,C1(=C(N=C(N=C1N)N)N)N=O,001006-23-1,-3.845467315,Nc1nc(N)c(N=O)c(N)n1
2683,B-7445,tert-butyl 4-(6-aminopyridin-3-yl)piperazine-1-carboxylate,RMULRXHUNOVPEI-UHFFFAOYSA-N,CC(C)(C)OC(=O)N1CCN(CC1)C2=CN=C(C=C2)N,571188-59-5,-1.717869321,CC(C)(C)OC(=O)N1CCN(c2ccc(N)nc2)CC1
2684,B-7446,(methyl-(phenoxy)phosphoryl)oxybenzene,HPUPGAFDTWIMBR-UHFFFAOYSA-N,CP(=O)(OC1=CC=CC=C1)OC2=CC=CC=C2,007526-26-3,-2.201708149,CP(=O)(Oc1ccccc1)Oc1ccccc1
2685,B-7447,N-(4-chlorophenyl)-3-hydroxynaphthalene-2-carboxamide,OHAXNCGNVGGWSO-UHFFFAOYSA-N,C1=CC=C2C=C(C(=CC2=C1)C(=O)NC3=CC=C(C=C3)Cl)O,000092-78-4,-5.473837622,O=C(Nc1ccc(Cl)cc1)c1cc2ccccc2cc1O
2686,B-7448,3-Oxo-N-phenylbutanamide,DYRDKSSFIWVSNM-UHFFFAOYSA-N,CC(=O)CC(=O)NC1=CC=CC=C1,000102-01-2,-1.299079593,CC(=O)CC(=O)Nc1ccccc1
2687,B-7449,2.3.3-trimethylindole-5-carboxylic acid,QUDAPQXQGBIUAR-UHFFFAOYSA-N,CC1=NC2=C(C1(C)C)C=C(C=C2)C(=O)O,084100-84-5,-2.662587344,CC1=Nc2ccc(C(=O)O)cc2C1(C)C
2688,B-7450,2-ethyl-2-[(2E)-2-(6-methoxy-3.4-dihydro-2H-naphthalen-1-ylidene)ethyl]cyclopentane-1.3-dione,OMXFYKCGCDGYNC-SDNWHVSQSA-N,CCC1(C(=O)CCC1=O)C/C=C/2\CCCC3=C2C=CC(=C3)OC,062298-52-6,-4.172502574,CCC1(CC=C2CCCc3cc(OC)ccc32)C(=O)CCC1=O
2689,B-7451,Phenylmethyl 2-hydroxybenzoate,ZCTQGTTXIYCGGC-UHFFFAOYSA-N,C1=CC=C(C=C1)COC(=O)C2=CC=CC=C2O,000118-58-1,-4.413922406,O=C(OCc1ccccc1)c1ccccc1O
2690,B-7452,bis(oxiran-2-ylmethyl) cyclohex-4-ene-1.2-dicarboxylate,KTPIWUHKYIJBCR-UHFFFAOYSA-N,C1C=CCC(C1C(=O)OCC2CO2)C(=O)OCC3CO3,021544-03-6,-1.340109783,O=C(OCC1CO1)C1CC=CCC1C(=O)OCC1CO1
2691,B-7453,N.N-dimethylpentadecan-1-amine oxide,DLPZOAYAGDEIHC-UHFFFAOYSA-N,CCCCCCCCCCCCCCC[N+](C)(C)[O-],068955-55-5,0.062075274,CCCCCCCCCCCCCCC[N+](C)(C)[O-]
2692,B-7454,(2-hydroxy-4-methoxyphenyl)-(2-hydroxyphenyl)methanone,MEZZCSHVIGVWFI-UHFFFAOYSA-N,COC1=CC(=C(C=C1)C(=O)C2=CC=CC=C2O)O,000131-53-3,-7.273884819,COc1ccc(C(=O)c2ccccc2O)c(O)c1
2693,B-7455,(4-formylphenyl)boronic acid,VXWBQOJISHAKKM-UHFFFAOYSA-N,B(C1=CC=C(C=C1)C=O)(O)O,087199-17-5,-2.267380323,O=Cc1ccc(B(O)O)cc1
2694,B-7456,2-methyl-N-[(2-methylprop-2-enoylamino)methyl]prop-2-enamide,TURITJIWSQEMDB-UHFFFAOYSA-N,CC(=C)C(=O)NCNC(=O)C(=C)C,002359-15-1,-1.189233896,C=C(C)C(=O)NCNC(=O)C(=C)C
2695,B-7457,1.8-bis(phenylsulfanyl)anthracene-9.10-dione,CNRPDCKHCGUKDK-UHFFFAOYSA-N,C1=CC=C(C=C1)SC2=CC=CC3=C2C(=O)C4=C(C3=O)C=CC=C4SC5=CC=CC=C5,013676-91-0,-5.517319903,O=C1c2cccc(Sc3ccccc3)c2C(=O)c2c(Sc3ccccc3)cccc21
2696,B-7458,(ethoxy-phenylphosphoryl)-(2.4.6-trimethylphenyl)methanone,ZMDDERVSCYEKPQ-UHFFFAOYSA-N,CCOP(=O)(C1=CC=CC=C1)C(=O)C2=C(C=C(C=C2C)C)C,084434-11-7,-3.956080437,CCOP(=O)(C(=O)c1c(C)cc(C)cc1C)c1ccccc1
2697,B-7459,1-[2-(benzoyloxy)propoxy]propan-2-yl benzoate,IZYUWBATGXUSIK-UHFFFAOYSA-N,CC(COCC(C)OC(=O)C1=CC=CC=C1)OC(=O)C2=CC=CC=C2,027138-31-4,-4.59550231,CC(COCC(C)OC(=O)c1ccccc1)OC(=O)c1ccccc1
2698,B-7460,N-(2-HYDROXYETHYL)DODECANAMIDE,QZXSMBBFBXPQHI-UHFFFAOYSA-N,CCCCCCCCCCCC(=O)NCCO,000142-78-9,-4.329395381,CCCCCCCCCCCC(=O)NCCO
2699,B-7461,(2S)-pyrrolidin-1-ium-2-carboxamide,VLJNHYLEOZPXFW-BYPYZUCNSA-N,C1C[C@H](NC1)C(=O)N,007531-52-4,0.78536466,NC(=O)C1CCCN1
2700,B-7462,2.3-dimethylbenzenesulfonic acid,ZZXDRXVIRVJQBT-UHFFFAOYSA-N,CC1=C(C(=CC=C1)S(=O)(=O)O)C,025321-41-9,0.792167359,Cc1cccc(S(=O)(=O)O)c1C
2701,B-7463,N-(2-hydroxyethyl)-3.5.5-trimethylhexanamide,JECPTUXNSPVAST-UHFFFAOYSA-N,CC(CC(=O)NCCO)CC(C)(C)C,1154308-86-7,-3.701801474,CC(CC(=O)NCCO)CC(C)(C)C
2702,B-7464,2-[(E)-prop-1-enyl]-2.3.3-tripropylbutanedioic acid,CDQYPMBESFIYFO-WEVVVXLNSA-N,CCCC(CCC)(C(=O)O)C(CCC)(/C=C/C)C(=O)O,027859-58-1,-3.495357768,CC=CC(CCC)(C(=O)O)C(CCC)(CCC)C(=O)O
2703,B-7465,2-AMINO-5-CHLORO-4-METHYLBENZENESULFONIC ACID,VYZCFAPUHSSYCC-UHFFFAOYSA-N,CC1=CC(=C(C=C1Cl)S(=O)(=O)O)N,000088-53-9,-2.345683606,Cc1cc(N)c(S(=O)(=O)O)cc1Cl
2704,B-7466,Bis(2.4-dichloro-5-nitrophenyl) carbonate,CVUDBPILLYLOSC-UHFFFAOYSA-N,C1=C(C(=CC(=C1OC(=O)OC2=C(C=C(C(=C2)[N+](=O)[O-])Cl)Cl)Cl)Cl)[N+](=O)[O-],039489-75-3,-6.81290923,O=C(Oc1cc([N+](=O)[O-])c(Cl)cc1Cl)Oc1cc([N+](=O)[O-])c(Cl)cc1Cl
2705,B-7467,7.8-dimethoxy-1.3-dihydro-3-benzazepin-2-one,CPNZASIAJKSBBH-UHFFFAOYSA-N,COC1=C(C=C2C=CNC(=O)CC2=C1)OC,073942-87-7,-3.728135144,COc1cc2c(cc1OC)CC(=O)NC=C2
2706,B-7468,2-(3-oxobutanoyloxy)ethyl 2-methylprop-2-enoate,IBDVWXAVKPRHCU-UHFFFAOYSA-N,CC(=C)C(=O)OCCOC(=O)CC(=O)C,021282-97-3,-1.063683421,C=C(C)C(=O)OCCOC(=O)CC(C)=O
2707,B-7469,dibutylcarbamothioylsulfanylmethyl (dibutylamino)methanedithioate,LMODBLQHQHXPEI-UHFFFAOYSA-N,CCCCN(CCCC)C(=S)SCSC(=S)N(CCCC)CCCC,010254-57-6,-6.240490287,CCCCN(CCCC)C(=S)SCSC(=S)N(CCCC)CCCC
2708,B-7470,N-[3-[3-[[(Z)-octadec-9-enyl]amino]propylamino]propyl]propane-1.3-diamine,XWNMFDCGCAFWHB-KTKRTIGZSA-N,CCCCCCCC/C=C\CCCCCCCCNCCCNCCCNCCCN,067228-83-5,-3.836068829,CCCCCCCCC=CCCCCCCCCNCCCNCCCNCCCN
2709,B-7471,2.3-dihydroxypropyl 2-methylprop-2-enoate,QRIMLDXJAPZHJE-UHFFFAOYSA-N,CC(=C)C(=O)OCC(CO)O,005919-74-4,0.795420451,C=C(C)C(=O)OCC(O)CO
2710,B-7472,2-amino-5-cyano-N.3-dimethylbenzamide,UOCPQZOXOQZEGV-UHFFFAOYSA-N,CC1=CC(=CC(=C1N)C(=O)NC)C#N,890707-29-6,-3.046495164,CNC(=O)c1cc(C#N)cc(C)c1N
2711,B-7473,tris(8-methylnonyl) benzene-1.2.4-tricarboxylate,FJFYFBRNDHRTHL-UHFFFAOYSA-N,CC(C)CCCCCCCOC(=O)C1=CC(=C(C=C1)C(=O)OCCCCCCCC(C)C)C(=O)OCCCCCCCC(C)C,036631-30-8,-5.706571057,CC(C)CCCCCCCOC(=O)c1ccc(C(=O)OCCCCCCCC(C)C)c(C(=O)OCCCCCCCC(C)C)c1
2712,B-7474,8-(isothiocyanatomethyl)-1.3-dimethyl-7-(phenylmethyl)purine-2.6-dione,ONUOBAZZFRTFOM-UHFFFAOYSA-N,CN1C2=C(C(=O)N(C1=O)C)N(C(=N2)CN=C=S)CC3=CC=CC=C3,027206-35-5,0.244904526,Cn1c(=O)c2c(nc(CN=C=S)n2Cc2ccccc2)n(C)c1=O
2713,B-7475,2-(1-amino-9.10-dioxoanthracen-2-yl)naphtho[3.2-f][1.3]benzoxazole-5.10-dione,RHEVAQGXLUQWBM-UHFFFAOYSA-N,C1=CC=C2C(=C1)C(=O)C3=C(C2=O)C(=C(C=C3)C4=NC5=C(O4)C=C6C(=C5)C(=O)C7=CC=CC=C7C6=O)N,002379-79-5,-5.496412982,Nc1c(-c2nc3cc4c(cc3o2)C(=O)c2ccccc2C4=O)ccc2c1C(=O)c1ccccc1C2=O
2714,B-7477,3-hydroxy-N-(2-methylphenyl)naphthalene-2-carboxamide,FBLAHUMENIHUGG-UHFFFAOYSA-N,CC1=CC=CC=C1NC(=O)C2=CC3=CC=CC=C3C=C2O,000135-61-5,-4.623440388,Cc1ccccc1NC(=O)c1cc2ccccc2cc1O
2715,B-7478,tris(4-propan-2-ylphenyl) phosphate,ANVREEJNGJMLOV-UHFFFAOYSA-N,CC(C)C1=CC=C(C=C1)OP(=O)(OC2=CC=C(C=C2)C(C)C)OC3=CC=C(C=C3)C(C)C,068937-41-7,-6.090980448,CC(C)c1ccc(OP(=O)(Oc2ccc(C(C)C)cc2)Oc2ccc(C(C)C)cc2)cc1
2716,B-7479,N-[2-[2-(benzoylamino)phenyl]disulfanylphenyl]benzamide,ZHMIOPLMFZVSHY-UHFFFAOYSA-N,C1=CC=C(C=C1)C(=O)NC2=CC=CC=C2SSC3=CC=CC=C3NC(=O)C4=CC=CC=C4,000135-57-9,-6.978272032,O=C(Nc1ccccc1SSc1ccccc1NC(=O)c1ccccc1)c1ccccc1
2717,B-7480,3-methyl-1.2-benzothiazole 1.1-dioxide,KBNUKJSZKJGXGU-UHFFFAOYSA-N,CC1=NS(=O)(=O)C2=CC=CC=C12,034989-82-7,-3.193721295,CC1=NS(=O)(=O)c2ccccc21
2718,B-7481,(Z.12R)-N-(3-dimethylaminopropyl)-12-hydroxyoctadec-9-enamide,DWIUBTKCNCCGOO-QOYCNBSOSA-N,CCCCCC[C@H](C/C=C\CCCCCCCC(=O)NCCCN(C)C)O,020457-75-4,-3.559360339,CCCCCCC(O)CC=CCCCCCCCC(=O)NCCCN(C)C
2719,B-7482,2-[(2-cyano-4-methoxy-4-methylpentan-2-yl)diazenyl]-4-methoxy-2.4-dimethylpentanenitrile,PFHOSZAOXCYAGJ-UHFFFAOYSA-N,CC(C)(CC(C)(C#N)N=NC(C)(CC(C)(C)OC)C#N)OC,015545-97-8,-2.547929345,COC(C)(C)CC(C)(C#N)N=NC(C)(C#N)CC(C)(C)OC
2720,B-7483,2-(9-oxothioxanthen-2-yl)oxyacetic acid,LJUKODJASZSKFL-UHFFFAOYSA-N,C1=CC=C2C(=C1)C(=O)C3=C(S2)C=CC(=C3)OCC(=O)O,084434-05-9,-4.187310831,O=C(O)COc1ccc2sc3ccccc3c(=O)c2c1
2721,B-7484,3-acetyl-1.3-thiazolidine-4-carboxylic acid,WXTBYSIPOKXCPM-UHFFFAOYSA-N,CC(=O)N1CSCC1C(=O)O,005025-82-1,-0.189692633,CC(=O)N1CSCC1C(=O)O
2722,B-7485,N-[(1S.8R)-11-(dichloromethylidene)-3-tricyclo[6.2.1.02.7]undeca-2(7).3.5-trienyl]-3-(difluoromethyl)-1-methylpyrazole-4-carboxamide,CCCGEKHKTPTUHJ-ZJUUUORDSA-N,CN1C=C(C(=N1)C(F)F)C(=O)NC2=CC=CC3=C2[C@@H]4CC[C@H]3C4=C(Cl)Cl,1072957-71-1,-5.608917495,Cn1cc(C(=O)Nc2cccc3c2C2CCC3C2=C(Cl)Cl)c(C(F)F)n1
2723,B-7486,4-nitrobenzene-1.3-diamine,DPIZKMGPXNXSGL-UHFFFAOYSA-N,C1=CC(=C(C=C1N)N)[N+](=O)[O-],005131-58-8,-2.18508921,Nc1ccc([N+](=O)[O-])c(N)c1
2724,B-7487,3.5-dimethyl-1H-pyrazole-4-carboxylic acid,IOOWDXMXZBYKLR-UHFFFAOYSA-N,CC1=C(C(=NN1)C)C(=O)O,135108-88-2,-1.669445197,Cc1n[nH]c(C)c1C(=O)O
2725,B-7488,2-(2-hydroxyethyl-octylamino)ethanol,QZQNMMLYACBCMJ-UHFFFAOYSA-N,CCCCCCCCN(CCO)CCO,015520-05-5,-2.191033207,CCCCCCCCN(CCO)CCO
2726,B-7489,N-(2.6-dimethylphenyl)-2-piperazin-1-ylacetamide,NJKRFQIWDJSYOK-UHFFFAOYSA-N,CC1=C(C(=CC=C1)C)NC(=O)CN2CCNCC2,005294-61-1,0.446811738,Cc1cccc(C)c1NC(=O)CN1CCNCC1
2727,B-7490,(4E)-5-methyl-4-[(3-methyl-5-oxo-1-phenyl-4H-pyrazol-4-yl)methylidene]-2-phenylpyrazol-3-one,QPAPQRFSPBUJAU-CPNJWEJPSA-N,CC1=NN(C(=O)C1/C=C/2\C(=NN(C2=O)C3=CC=CC=C3)C)C4=CC=CC=C4,004702-90-3,-7.882268689,CC1=NN(c2ccccc2)C(=O)C1=CC1C(=O)N(c2ccccc2)N=C1C
2728,B-7491,(1S.2R.7S.9R)-4.12-diphenyl-3.5.8.11.13-pentaoxatricyclo[7.4.0.02.7]tridecan-7-ol,DAZRYUTWPPBZOY-WUFCDUEQSA-N,C1[C@@H]2[C@@H]([C@@H]3[C@@](O2)(COC(O3)C4=CC=CC=C4)O)OC(O1)C5=CC=CC=C5,032647-67-9,-4.437963147,OC12COC(c3ccccc3)OC1C1OC(c3ccccc3)OCC1O2
2729,B-7492,N-ethyl-N-[2-[1-(2-methylpropoxy)ethoxy]ethyl]-4-phenyldiazenylaniline,BATVZJPOLFSGTD-UHFFFAOYSA-N,CCN(CCOC(C)OCC(C)C)C1=CC=C(C=C1)N=NC2=CC=CC=C2,034432-92-3,-7.090500005,CCN(CCOC(C)OCC(C)C)c1ccc(N=Nc2ccccc2)cc1
2730,B-7493,4-Acetamidobenzenesulfonyl chloride,GRDXCFKBQWDAJH-UHFFFAOYSA-N,CC(=O)NC1=CC=C(C=C1)S(=O)(=O)Cl,000121-60-8,-1.781748535,CC(=O)Nc1ccc(S(=O)(=O)Cl)cc1
2731,B-7494,3-Hydroxy-2-methylquinoline-4-carboxylic acid,RVGATDHHYVSTQG-UHFFFAOYSA-N,CC1=NC2=CC=CC=C2C(=C1O)C(=O)O,000117-57-7,-4.006887296,Cc1nc2ccccc2c(C(=O)O)c1O
2732,B-7495,3.3.4.4.5.5.6.6.7.7.8.8.8-tridecafluorooctane-1-sulfonic acid,VIONGDJUYAYOPU-UHFFFAOYSA-N,C(CS(=O)(=O)O)C(C(C(C(C(C(F)(F)F)(F)F)(F)F)(F)F)(F)F)(F)F,027619-97-2,0.186614832,O=S(=O)(O)CCC(F)(F)C(F)(F)C(F)(F)C(F)(F)C(F)(F)C(F)(F)F
2733,B-7496,Methyl 2.4-dihydroxy-3.6-dimethylbenzoate,UUQHKWMIDYRWHH-UHFFFAOYSA-N,CC1=CC(=C(C(=C1C(=O)OC)O)C)O,004707-47-5,-4.03743181,COC(=O)c1c(C)cc(O)c(C)c1O
2734,B-7497,methyl 1-[[2-(2.5-dimethylphenyl)acetyl]amino]-4-methoxycyclohexane-1-carboxylate,XDMDPNFUGPCFHE-UHFFFAOYSA-N,CC1=CC(=C(C=C1)C)CC(=O)NC2(CCC(CC2)OC)C(=O)OC,203313-47-7,-3.123326522,COC(=O)C1(NC(=O)Cc2cc(C)ccc2C)CCC(OC)CC1
2735,B-7498,dimethylcarbamothioyl dimethylaminomethanedithioate,REQPQFUJGGOFQL-UHFFFAOYSA-N,CN(C)C(=S)SC(=S)N(C)C,000097-74-5,-2.830251543,CN(C)C(=S)SC(=S)N(C)C
2736,B-7499,9.10-dihydroxy-2.3-dihydroanthracene-1.4-dione,FVXPBEUYCCZFJT-UHFFFAOYSA-N,C1CC(=O)C2=C(C3=CC=CC=C3C(=C2C1=O)O)O,040498-13-3,-5.509167742,O=C1CCC(=O)c2c1c(O)c1ccccc1c2O
2737,B-7500,(2R)-2-amino-2-phenylacetic acid,ZGUNAGUHMKGQNY-SSDOTTSWSA-N,C1=CC=C(C=C1)[C@H](C(=O)O)N,000875-74-1,-1.508277256,NC(C(=O)O)c1ccccc1
2738,B-7501,N-(3-hydroxyphenyl)-2-[4-(2-methylpropyl)phenyl]propanamide,BFAMIANGVJIKOW-UHFFFAOYSA-N,CC(C)CC1=CC=C(C=C1)C(C)C(=O)NC2=CC(=CC=C2)O,005567-15-7,-7.564850396,CC(C)Cc1ccc(C(C)C(=O)Nc2cccc(O)c2)cc1
2739,B-7502,(4-methoxy-2.2-dimethyl-3a.4.6.6a-tetrahydrofuro[3.4-d][1.3]dioxol-6-yl)methyl 4-methylbenzenesulfonate,IAPMZKRZMYQZSW-UHFFFAOYSA-N,CC1=CC=C(C=C1)S(=O)(=O)OCC2C3C(C(O2)OC)OC(O3)(C)C,004137-56-8,-4.156434778,COC1OC(COS(=O)(=O)c2ccc(C)cc2)C2OC(C)(C)OC12
2740,B-7503,5-[(5-sulfanylidene-4H-1.3.4-thiadiazol-2-yl)disulfanyl]-3H-1.3.4-thiadiazole-2-thione,DJCISYVIXPWVHY-UHFFFAOYSA-N,C1(=S)NN=C(S1)SSC2=NNC(=S)S2,072676-55-2,-3.252150164,S=c1[nH]nc(SSc2n[nH]c(=S)s2)s1
2741,B-7504,16-azaoctacyclo[18.10.2.02.15.05.14.07.12.017.31.021.26.028.32]dotriaconta-1(31).2(15).3.5(14).7.9.11.17.19.21.23.25.28(32).29-tetradecaene-6.13.27-trione,HHKPGQSPFVLKMV-UHFFFAOYSA-N,C1=CC=C2C(=C1)C3=CC=C4C5=C(C=CC(=C35)C2=O)C6=C(N4)C7=C(C=C6)C(=O)C8=CC=CC=C8C7=O,003271-76-9,-5.506567263,O=C1c2ccccc2C(=O)c2c1ccc1c2[nH]c2ccc3c4ccccc4c(=O)c4ccc1c2c43
2742,B-7505,2-[2-[2-(2-prop-2-enoyloxyethoxy)ethoxy]ethoxy]ethyl prop-2-enoate,HCLJOFJIQIJXHS-UHFFFAOYSA-N,C=CC(=O)OCCOCCOCCOCCOC(=O)C=C,017831-71-9,-0.500014158,C=CC(=O)OCCOCCOCCOCCOC(=O)C=C