,C_ID,Name,InChIKey,SMILES,CAS,LogS,smiles_canon
4427,B-9810,5-phenyl-1.3-thiazole-2.4-diamine,UPOYFZYFGWBUKL-UHFFFAOYSA-N,NC1NC(C(S1)C1CCCCC1)N,000490-55-1,-2.787869183,NC1NC(N)C(C2CCCCC2)S1
4428,B-9812,2-ethoxycarbonyloxybenzoic acid,CULQSUABDCVMTA-UHFFFAOYSA-N,CCOC(=O)OC1CCCCC1C(=O)O,014216-33-2,-1.998319264,CCOC(=O)OC1CCCCC1C(=O)O
4429,B-9813,(2-sulfosulfanylethylamino)methylbenzene,BDWRWXCLAKVGMM-UHFFFAOYSA-N,OS(=O)(=O)SCCNCC1CCCCC1,000949-96-2,-0.178427682,O=S(=O)(O)SCCNCC1CCCCC1
4430,B-9814,[4-[bis(2-chloroethyl)amino]phenyl] 4-bromobenzoate,VSZDJZWCVDOADP-UHFFFAOYSA-N,ClCCN(C1CCC(CC1)OC(=O)C1CCC(CC1)Br)CCCl,022953-53-3,-7.025872617,O=C(OC1CCC(N(CCCl)CCCl)CC1)C1CCC(Br)CC1
4431,B-9815,6-morpholin-4-yl-4.4-di(phenyl)hexan-3-one,SXKOCXTXIUNMEN-UHFFFAOYSA-N,CCC(=O)C(C1CCCCC1)(C1CCCCC1)CCN1CCOCC1,063765-87-7,-3.523904802,CCC(=O)C(CCN1CCOCC1)(C1CCCCC1)C1CCCCC1
4432,B-9816,5-[(4-chlorophenyl)sulfanylmethyl]-4.5-dihydro-1.3-oxazol-2-amine,MTENFETUMWYLRL-UHFFFAOYSA-N,NC1=NCC(O1)CSC1CCC(CC1)Cl,050510-11-7,-3.355723557,NC1=NCC(CSC2CCC(Cl)CC2)O1
4433,B-9817,1-[(E)-but-2-enyl]-3.7-dimethylpurine-2.6-dione,NEXDOZRNANHHKQ-SNAWJCMRSA-N,C/C=C/CN1C(=O)C2N(C)CNC2N(C1=O)C,063906-57-0,-2.116843254,CC=CCN1C(=O)C2C(NCN2C)N(C)C1=O
4434,B-9818,ethyl 4-phenyl-1-[3-(phenylamino)propyl]piperidine-4-carboxylate,PXXKIYPSXYFATG-UHFFFAOYSA-N,CCOC(=O)C1(CCN(CC1)CCCNC1CCCCC1)C1CCCCC1,013495-09-5,-4.964087726,CCOC(=O)C1(C2CCCCC2)CCN(CCCNC2CCCCC2)CC1
4435,B-9819,(E)-3-(2-nitrophenyl)prop-2-enoic acid,BBQDLDVSEDAYAA-AATRIKPKSA-N,OC(=O)/C=C/C1CCCCC1[N+](=O)[O-],000612-41-9,-2.217726838,O=C(O)C=CC1CCCCC1[N+](=O)[O-]
4436,B-9820,3-butyl-2.2-dioxo-1H-benzo[d]thiazin-4-one,YWSIDZBIXJZMTH-UHFFFAOYSA-N,CCCCN1C(=O)C2CCCCC2CS1(=O)=O,021784-56-5,-3.096166567,CCCCN1C(=O)C2CCCCC2CS1(=O)=O
4437,B-9821,2-(phenoxy)-2-phenylacetic acid,ABUKMOCUMIPDHV-UHFFFAOYSA-N,OC(=O)C(C1CCCCC1)OC1CCCCC1,003117-38-2,-3.000470212,O=C(O)C(OC1CCCCC1)C1CCCCC1
4438,B-9822,6-methyl-2-(2-pyridin-4-ylethyl)-4.5-dihydropyridazin-3-one,NSLJAVZPTLLIER-UHFFFAOYSA-N,CC1=NN(C(=O)CC1)CCC1CCNCC1,003614-56-0,-1.135606638,CC1=NN(CCC2CCNCC2)C(=O)CC1
4439,B-9824,(E)-N-(3-dimethylaminopropyl)-N-(2.6-dimethylphenyl)-3-phenylprop-2-enamide,OVAZLWZUJJDABM-CCEZHUSRSA-N,CN(CCCN(C1C(C)CCCC1C)C(=O)/C=C/C1CCCCC1)C,018095-74-4,-5.234701893,CC1CCCC(C)C1N(CCCN(C)C)C(=O)C=CC1CCCCC1
4440,B-9825,3-(2-methylpiperidin-1-yl)propyl 4-hydroxybenzoate,ASQZBIDTYBYRLK-UHFFFAOYSA-N,OC1CCC(CC1)C(=O)OCCCN1CCCCC1C,063916-87-0,-3.019804234,CC1CCCCN1CCCOC(=O)C1CCC(O)CC1
4441,B-9826,1.1-bis(4-fluorophenyl)prop-2-ynyl N-cycloheptylcarbamate,IQLOSBYZJUGSKB-UHFFFAOYSA-N,C#CC(C1CCC(CC1)F)(C1CCC(CC1)F)OC(=O)NC1CCCCCC1,020929-99-1,-7.659416984,C#CC(OC(=O)NC1CCCCCC1)(C1CCC(F)CC1)C1CCC(F)CC1
4442,B-9827,1-(2-Chloroethyl)-5-ethyl-2-nitroimidazole,SPPPYRUQHOFCCJ-UHFFFAOYSA-N,ClCCN1C(CC)CNC1[N+](=O)[O-],023571-43-9,-2.960528388,CCC1CNC([N+](=O)[O-])N1CCCl
4443,B-9828,N-[2-(methyl-(2-phenylethyl)amino)propyl]-N-phenylpropanamide,RXTHKWVSXOIHJS-UHFFFAOYSA-N,CCC(=O)N(C1CCCCC1)CC(N(CCC1CCCCC1)C)C,000552-25-0,-3.694400446,CCC(=O)N(CC(C)N(C)CCC1CCCCC1)C1CCCCC1
4444,B-9829,2-hydroxy-N-methylbenzamide,BCKXMQIYWWTZDP-UHFFFAOYSA-N,CNC(=O)C1CCCCC1O,001862-88-0,-1.006264951,CNC(=O)C1CCCCC1O
4445,B-9830,3-chloro-2-(2.3.4-trichlorophenyl)oxirane-2-carboxamide,BRSYMLUWFHEDPI-UHFFFAOYSA-N,NC(=O)C1(OC1Cl)C1CCC(C(C1Cl)Cl)Cl,023474-43-3,-4.091095863,NC(=O)C1(C2CCC(Cl)C(Cl)C2Cl)OC1Cl
4446,B-9831,ethyl 2-amino-6-(phenylmethyl)-5.7-dihydro-4H-thieno[5.4-c]pyridine-3-carboxylate,PFENFDGYVLAFBR-UHFFFAOYSA-N,CCOC(=O)C1C(N)SC2C1CCN(C2)CC1CCCCC1,024237-54-5,-3.261464005,CCOC(=O)C1C(N)SC2CN(CC3CCCCC3)CCC21
4447,B-9832,7H-pyrrolo[3.2-e]pyrimidin-4-amine,PEHVGBZKEYRQSX-UHFFFAOYSA-N,NC1NCNC2C1CC[NH]2,001500-85-2,-0.261277438,NC1NCNC2NCCC12
4448,B-9834,5-methyl-4-oxidopyrazin-4-ium-2-carboxylic acid,DJQOOSBJCLSSEY-UHFFFAOYSA-N,[O-][N+]1CC(NCC1C)C(=O)O,051037-30-0,0.195583207,CC1CNC(C(=O)O)C[N+]1[O-]
4449,B-9835,5-phenyl-1.3.4-oxadiazol-2-amine,CQSFYCBGVMWPCM-UHFFFAOYSA-N,NC1NNC(O1)C1CCCCC1,001612-76-6,-0.715906344,NC1NNC(C2CCCCC2)O1
4450,B-9836,2-(4-aminophenyl)acetic acid,CSEWAUGPAQPMDC-UHFFFAOYSA-N,OC(=O)CC1CCC(CC1)N,001197-55-3,-1.232606106,NC1CCC(CC(=O)O)CC1
4451,B-9837,ethyl 4-(3-hydroxyphenyl)-1-methylpiperidine-4-carboxylate,WTJBNMUWRKPFRS-UHFFFAOYSA-N,CCOC(=O)C1(CCN(CC1)C)C1CCCC(C1)O,000468-56-4,-1.562697122,CCOC(=O)C1(C2CCCC(O)C2)CCN(C)CC1
4452,B-9838,2-[4-[3-[2-(trifluoromethyl)phenothiazin-10-yl]propyl]piperazin-1-yl]ethyl decanoate,VIQCGTZFEYDQMR-UHFFFAOYSA-N,CCCCCCCCCC(=O)OCCN1CCN(CC1)CCCN1C2CCCCC2SC2C1CC(CC2)C(F)(F)F,005002-47-1,-11.35885391,CCCCCCCCCC(=O)OCCN1CCN(CCCN2C3CCCCC3SC3CCC(C(F)(F)F)CC32)CC1
4453,B-9839,(3R)-3-ethyl-3-phenylpiperidine-2.6-dione,JMBQKKAJIKAWKF-CYBMUJFWSA-N,CC[C@@]1(CCC(=O)NC1=O)C1CCCCC1,017575-58-5,-2.3399999,CCC1(C2CCCCC2)CCC(=O)NC1=O
4454,B-9840,ethyl 6-nitro-4-oxochromene-2-carboxylate,RWGUGNHDBXRLSD-UHFFFAOYSA-N,CCOC(=O)C1CC(=O)C2C(O1)CCC(C2)[N+](=O)[O-],030095-79-5,-2.919234856,CCOC(=O)C1CC(=O)C2CC([N+](=O)[O-])CCC2O1
4455,B-9841,(3-diethylamino-2.2-dimethylpropyl) 4-aminobenzoate,OWQIUQKMMPDHQQ-UHFFFAOYSA-N,CCN(CC(COC(=O)C1CCC(CC1)N)(C)C)CC,056961-98-9,-3.081992061,CCN(CC)CC(C)(C)COC(=O)C1CCC(N)CC1
4456,B-9842,3-(2-chloro-6-prop-2-enylphenoxy)propane-1.2-diol,RBMARMBAZFJJRX-UHFFFAOYSA-N,C=CCC1CCCC(C1OCC(CO)O)Cl,063905-20-4,-3.44504985,C=CCC1CCCC(Cl)C1OCC(O)CO
4457,B-9843,3.7-dimethyl-1-prop-2-enylpurine-2.6-dione,BTFHIKZOEZREBX-UHFFFAOYSA-N,C=CCN1C(=O)N(C)C2C(C1=O)N(C)CN2,002530-99-6,-1.596246204,C=CCN1C(=O)C2C(NCN2C)N(C)C1=O
4458,B-9844,2-propylpyridine-4-carbothioamide,VRDIULHPQTYCLN-UHFFFAOYSA-N,CCCC1CC(CCN1)C(=S)N,014222-60-7,-1.997283767,CCCC1CC(C(N)=S)CCN1
4459,B-9845,2-hexoxycarbonyloxybenzoic acid,XSIAKDCMDYUKNA-UHFFFAOYSA-N,CCCCCCOC(=O)OC1CCCCC1C(=O)O,017867-69-5,-3.816833717,CCCCCCOC(=O)OC1CCCCC1C(=O)O
4460,B-9846,1.1-dioxo-2-(phenylmethyl)-4H-benzo[e]thiazin-3-one,OZDQCCZKFFTJBX-UHFFFAOYSA-N,O=C1CC2CCCCC2S(=O)(=O)N1CC1CCCCC1,031848-20-1,-3.153034153,O=C1CC2CCCCC2S(=O)(=O)N1CC1CCCCC1
4461,B-9847,(4-methoxyphenyl)-pyridin-2-ylmethanone,ZYZQOYSKLICWGX-UHFFFAOYSA-N,COC1CCC(CC1)C(=O)C1CCCCN1,006305-18-6,-2.498271838,COC1CCC(C(=O)C2CCCCN2)CC1
4462,B-9848,10-chloro-2-methyl-11b-phenyl-2.3.5.7-tetrahydro-[1.3]oxazolo[3.2-d][1.4]benzodiazepin-6-one,VCCZBYPHZRWKFY-UHFFFAOYSA-N,O=C1CN2CC(OC2(C2C(N1)CCC(C2)Cl)C1CCCCC1)C,024143-17-7,-4.744604806,CC1CN2CC(=O)NC3CCC(Cl)CC3C2(C2CCCCC2)O1
4463,B-9849,1-(2-chlorophenyl)-3-(1.3-oxazol-2-yl)urea,LPQDBWXROSWZMP-UHFFFAOYSA-N,O=C(NC1CCCCC1Cl)NC1NCCO1,035629-48-2,-3.027620181,O=C(NC1NCCO1)NC1CCCCC1Cl
4464,B-9850,(4R.4aR.7R.7aR.12bS)-9-methoxy-3-methyl-2.4.4a.5.6.7.7a.13-octahydro-1H-4.12-methanobenzofuro[3.2-e]isoquinolin-7-ol,RBOXVHNMENFORY-KEMUOJQUSA-N,COC1CCC2C3C1O[C@@H]1[C@@]43CCN([C@H](C2)[C@@H]4CC[C@H]1O)C,000795-38-0,-2.452589796,COC1CCC2CC3C4CCC(O)C5OC1C2C45CCN3C
4465,B-9851,2.3-dimethyl-1-(phenylmethyl)guanidine,NIVZHWNOUVJHKV-UHFFFAOYSA-N,CN/C(=N\C)/NCC1CCCCC1,000055-73-2,-2.931989416,CN=C(NC)NCC1CCCCC1
4466,B-9852,5-bromo-1.6-dimethyl-3-(phenylmethyl)pyrimidine-2.4-dione,NPSSKLWIPCMJBU-UHFFFAOYSA-N,CC1N(C)C(=O)N(C(=O)C1Br)CC1CCCCC1,032000-70-7,-3.337899154,CC1C(Br)C(=O)N(CC2CCCCC2)C(=O)N1C
4467,B-9853,piperidin-3-yl 2-hydroxy-2.2-di(phenyl)acetate,IGXOSKVDCFQEBF-UHFFFAOYSA-N,O=C(C(C1CCCCC1)(C1CCCCC1)O)OC1CCCNC1,057258-61-4,-2.593471621,O=C(OC1CCCNC1)C(O)(C1CCCCC1)C1CCCCC1
4468,B-9855,(Z)-2-methyl-3-phenyl-N-propylbut-2-enamide,CZHLUSGQYSVABS-QXMHVHEDSA-N,CCCNC(=O)/C(=C(\C1CCCCC1)/C)/C,056604-96-7,-3.659476756,CCCNC(=O)C(C)=C(C)C1CCCCC1
4469,B-9856,N-hydroxy-2-(3-methyl-4-propoxyphenyl)acetamide,OXTGYDWQGFWOBE-UHFFFAOYSA-N,CCCOC1CCC(CC1C)CC(=O)NO,023142-39-4,-2.564930683,CCCOC1CCC(CC(=O)NO)CC1C
4470,B-9858,1-[2-(3.5-dichloro-2-methoxyphenyl)ethyl]-6.7-dimethoxy-2-methyl-3.4-dihydro-1H-isoquinoline,LCRXWIKBUJLRRR-UHFFFAOYSA-N,COC1CC2C(CC1OC)CCN(C2CCC1CC(Cl)CC(C1OC)Cl)C,063937-48-4,-6.398294704,COC1CC2CCN(C)C(CCC3CC(Cl)CC(Cl)C3OC)C2CC1OC
4471,B-9859,[2-(hydroxymethyl)-2-phenylbutyl] N.N-dimethylcarbamate,FVYNXBCYHZXKIV-UHFFFAOYSA-N,CCC(C1CCCCC1)(COC(=O)N(C)C)CO,025384-55-8,-3.135419596,CCC(CO)(COC(=O)N(C)C)C1CCCCC1
4472,B-9860,2-(3.4-dimethoxyphenyl)-N-methyl-N-(1.2.3.4-tetrahydroquinolin-2-ylmethyl)ethanamine,BFLQZZJZTFQHKJ-UHFFFAOYSA-N,COC1CC(CCN(CC2CCC3C(N2)CCCC3)C)CCC1OC,027413-25-8,-3.915074696,COC1CCC(CCN(C)CC2CCC3CCCCC3N2)CC1OC
4473,B-9861,2-(2-dimethylaminoethyl)-5-methyl-2-naphthalen-2-ylhex-4-enamide,LANDSJLNLKENGO-UHFFFAOYSA-N,CN(CCC(C1CCC2C(C1)CCCC2)(C(=O)N)CC=C(C)C)C,050765-98-5,-5.064013827,CC(C)=CCC(CCN(C)C)(C(N)=O)C1CCC2CCCCC2C1
4474,B-9862,N'.N'-dimethylacridine-2.6-diamine,WXORVJKMLQDWJL-UHFFFAOYSA-N,NC1CCC2C(C1)CC1C(N2)CC(CC1)N(C)C,064046-77-1,-4.24497495,CN(C)C1CCC2CC3CC(N)CCC3NC2C1
4475,B-9863,(1S)-6-chloro-5-cyclohexyl-2.3-dihydro-1H-indene-1-carboxylic acid,OIRAEJWYWSAQNG-LBPRGKRZSA-N,OC(=O)[C@H]1CCC2C1CC(Cl)C(C2)C1CCCCC1,028968-09-4,-5.742824846,O=C(O)C1CCC2CC(C3CCCCC3)C(Cl)CC21
4476,B-9865,[(4aS.8aS)-2-methyl-3.4.4a.5.6.7.8.8a-octahydro-1H-isoquinolin-5-yl] 3.4.5-trimethoxybenzoate,ITPBBIALPUKKHC-YISXUXMPSA-N,COC1CC(CC(C1OC)OC)C(=O)OC1CCC[C@H]2[C@@H]1CCN(C2)C,018429-98-6,-3.570999647,COC1CC(C(=O)OC2CCCC3CN(C)CCC32)CC(OC)C1OC
4477,B-9866,1-(ethoxy-ethylphosphoryl)oxy-4-nitrobenzene,XXUJMEYKYHETBZ-UHFFFAOYSA-N,CCP(=O)(OC1CCC(CC1)[N+](=O)[O-])OCC,000546-71-4,-3.173082398,CCOP(=O)(CC)OC1CCC([N+](=O)[O-])CC1
4478,B-9867,2.6-dimethoxybenzene-1.4-diol,GXAVBFNRWXCOPY-UHFFFAOYSA-N,COC1CC(O)CC(C1O)OC,015233-65-5,-0.382062985,COC1CC(O)CC(OC)C1O
4479,B-9868,(3R)-3-methyl-4-morpholin-4-yl-2.2-di(phenyl)-1-pyrrolidin-1-ylbutan-1-one,INUNXTSAACVKJS-NRFANRHFSA-N,C[C@H](C(C(=O)N1CCCC1)(C1CCCCC1)C1CCCCC1)CN1CCOCC1,005666-11-5,-5.145180917,CC(CN1CCOCC1)C(C(=O)N1CCCC1)(C1CCCCC1)C1CCCCC1
4480,B-9869,2-[[4-chloro-6-(4-methylpiperazin-1-yl)-5-methylsulfanylpyrimidin-2-yl]amino]ethanol,RUDQYVYWAGQGNG-UHFFFAOYSA-N,OCCNC1NC(N2CCN(CC2)C)C(C(N1)Cl)SC,055921-70-5,-0.90341258,CSC1C(Cl)NC(NCCO)NC1N1CCN(C)CC1
4481,B-9870,3-(4-methylphenyl)sulfonylpropane-1.2-diol,HAEAJIXAMUMSFQ-UHFFFAOYSA-N,OCC(CS(=O)(=O)C1CCC(CC1)C)O,063991-87-7,-0.449499145,CC1CCC(S(=O)(=O)CC(O)CO)CC1
4482,B-9871,1.3-dimethyl-5-phenyl-1.3-diazinane-2.4.6-trione,UGFMJBRXTRUGJC-UHFFFAOYSA-N,CN1C(=O)C(C2CCCCC2)C(=O)N(C1=O)C,007391-66-4,-1.584898214,CN1C(=O)C(C2CCCCC2)C(=O)N(C)C1=O
4483,B-9872,6.7-dimethoxychromen-2-one,GUAFOGOEJLSQBT-UHFFFAOYSA-N,COC1CC2OC(=O)CCC2CC1OC,000120-08-1,-2.174403277,COC1CC2CCC(=O)OC2CC1OC
4484,B-9873,8-(dimethylaminomethyl)-2-(4-fluorophenyl)-7-methoxy-3-methylchromen-4-one,OKHBMCHTIXFPOE-UHFFFAOYSA-N,COC1CCC2C(C1CN(C)C)OC(C(C2=O)C)C1CCC(CC1)F,086073-55-4,-4.173405123,COC1CCC2C(=O)C(C)C(C3CCC(F)CC3)OC2C1CN(C)C
4485,B-9874,2.2-di(phenyl)acetamide,ZXQVXEAZKZFEEP-UHFFFAOYSA-N,NC(=O)C(C1CCCCC1)C1CCCCC1,004695-13-0,-2.603839775,NC(=O)C(C1CCCCC1)C1CCCCC1
4486,B-9877,9-methoxy-5.11-dimethyl-6H-pyrido[4.3-b]carbazole,BKRMCDAOAQWNTG-UHFFFAOYSA-N,COC1CCC2C(C1)C1C(C)C3CNCCC3C(C1[NH]2)C,010371-86-5,-6.268255898,COC1CCC2NC3C(C)C4CCNCC4C(C)C3C2C1
4487,B-9878,[4-(bis(2-bromoethyl)amino)phenyl] 2-propan-2-ylbenzoate,PRMOCPYCVSHNMG-UHFFFAOYSA-N,BrCCN(C1CCC(CC1)OC(=O)C1CCCCC1C(C)C)CCBr,022954-14-9,-8.040945894,CC(C)C1CCCCC1C(=O)OC1CCC(N(CCBr)CCBr)CC1
4488,B-9879,4-butyl-1-phenylpyrazolidine-3.5-dione,REOJLIXKJWXUGB-UHFFFAOYSA-N,CCCCC1C(=O)NN(C1=O)C1CCCCC1,002210-63-1,-2.573765855,CCCCC1C(=O)NN(C2CCCCC2)C1=O
4489,B-9880,1.2-bis(4-methoxyphenyl)ethanamine,HKSKSPMTGBSDOR-UHFFFAOYSA-N,COC1CCC(CC1)CC(C1CCC(CC1)OC)N,036265-54-0,-2.936279236,COC1CCC(CC(N)C2CCC(OC)CC2)CC1
4490,B-9881,5-(di(prop-2-enyl)amino)-3.6-dimethyl-1-phenylpyrimidine-2.4-dione,OXKMQABFDJFCKD-UHFFFAOYSA-N,C=CCN(C1C(C)N(C2CCCCC2)C(=O)N(C1=O)C)CC=C,032150-62-2,-3.700206102,C=CCN(CC=C)C1C(=O)N(C)C(=O)N(C2CCCCC2)C1C
4491,B-9883,2-(5-nitrothiophen-2-yl)-1.3-thiazole-4-carbaldehyde,NKUIGIUMTOAMIW-UHFFFAOYSA-N,O=CC1CSC(N1)C1CCC(S1)[N+](=O)[O-],031898-37-0,-3.147669112,O=CC1CSC(C2CCC([N+](=O)[O-])S2)N1
4492,B-9884,2-(4-chlorophenyl)-8-(dimethylaminomethyl)-7-methoxy-3-methylchromen-4-one,SLACVLUCWZYDAK-UHFFFAOYSA-N,COC1CCC2C(C1CN(C)C)OC(C(C2=O)C)C1CCC(CC1)Cl,086073-60-1,-4.673439839,COC1CCC2C(=O)C(C)C(C3CCC(Cl)CC3)OC2C1CN(C)C
4493,B-9885,2-amino-4-arsorosophenol,KVGGQNNGLOIZSK-UHFFFAOYSA-N,O=[As]C1CCC(C(C1)N)O,000306-12-7,-1.546126114,NC1CC([As]=O)CCC1O
4494,B-9886,1-(4-methoxyphenyl)-3-pyrrolidin-1-ylpyrrolidin-2-one,TWAYYLLFOQXVJV-UHFFFAOYSA-N,COC1CCC(CC1)N1CCC(C1=O)N1CCCC1,006103-46-4,-2.626660797,COC1CCC(N2CCC(N3CCCC3)C2=O)CC1
4495,B-9887,pyridin-3-ylmethyl 2-(4-chlorophenoxy)-2-methylpropanoate,RARQHAFNGNPQCZ-UHFFFAOYSA-N,ClC1CCC(CC1)OC(C(=O)OCC1CCCNC1)(C)C,031980-29-7,-2.743674845,CC(C)(OC1CCC(Cl)CC1)C(=O)OCC1CCCNC1
4496,B-9888,4-Amino-3-phenylbutanoic acid,DAFOCGYVTAOKAJ-UHFFFAOYSA-N,NCC(C1CCCCC1)CC(=O)O,035568-37-7,-0.078452432,NCC(CC(=O)O)C1CCCCC1
4497,B-9889,N-hydroxy-3-(3-methyl-4-propoxyphenyl)prop-2-enamide,PHNSAMVICKDQJR-UHFFFAOYSA-N,CCCOC1CCC(CC1C)C=CC(=O)NO,026228-10-4,-3.342206771,CCCOC1CCC(C=CC(=O)NO)CC1C
4498,B-9890,[1-acetyloxy-3-(phenylmethoxy)propan-2-yl] acetate,PZJWZGWBDMSONK-UHFFFAOYSA-N,CC(=O)OC(COC(=O)C)COCC1CCCCC1,013754-10-4,-2.649385419,CC(=O)OCC(COCC1CCCCC1)OC(C)=O
4499,B-9891,3-methyl-2.2-dioxo-1H-benzo[d]thiazin-4-one,RAQMXXMLEHZQQE-UHFFFAOYSA-N,O=C1C2CCCCC2CS(=O)(=O)N1C,021784-54-3,-1.530975494,CN1C(=O)C2CCCCC2CS1(=O)=O
4500,B-9892,N-[(E)-2-(4-methoxyphenyl)ethenyl]formamide,SZCZSKMCTGEJKI-VOTSOKGWSA-N,COC1CCC(CC1)/C=C/NC=O,002501-37-3,-2.150866741,COC1CCC(C=CNC=O)CC1
4501,B-9894,Benzene-1.3.5-tricarbonitrile,SGLGUTWNGVJXPP-UHFFFAOYSA-N,N#CC1CC(C#N)CC(C1)C#N,010365-94-3,-1.124402146,N#CC1CC(C#N)CC(C#N)C1
4502,B-9898,2.4.5-TRIHYDROXYBENZOIC ACID,GPDXFYPVHRESMA-UHFFFAOYSA-N,OC1CC(C(=O)O)C(CC1O)O,000610-90-2,-0.958913768,O=C(O)C1CC(O)C(O)CC1O
4503,B-9899,(2-propan-2-yl-1H-indol-3-yl)-pyridin-3-ylmethanone,SOOXXPIIPHUERK-UHFFFAOYSA-N,CC(C1[NH]C2C(C1C(=O)C1CCCNC1)CCCC2)C,036504-64-0,-4.097860715,CC(C)C1NC2CCCCC2C1C(=O)C1CCCNC1
4504,B-9900,3-ethyl-2.2-dioxo-1H-benzo[d]thiazin-4-one,FEPNBMKNKFJTBE-UHFFFAOYSA-N,CCN1C(=O)C2CCCCC2CS1(=O)=O,021784-55-4,-2.051657921,CCN1C(=O)C2CCCCC2CS1(=O)=O
4505,B-9901,(2-ethyl-1-benzofuran-3-yl)-(4-hydroxyphenyl)methanone,RFRXIWQYSOIBDI-UHFFFAOYSA-N,CCC1OC2C(C1C(=O)C1CCC(CC1)O)CCCC2,001477-19-6,-4.176655891,CCC1OC2CCCCC2C1C(=O)C1CCC(O)CC1
4506,B-9902,4-(1.2.4.4a.5.6-hexahydropyrazino[4.3-a]quinolin-3-yl)pyridin-3-amine,GUZOHLPBYOGINP-UHFFFAOYSA-N,NC1CNCCC1N1CCN2C(C1)CCC1C2CCCC1,027114-10-9,-3.494946844,NC1CNCCC1N1CCN2C(CCC3CCCCC32)C1
4507,B-9904,1-(2-Iodoethyl)-2-methyl-5-nitroimidazole,ROXLQGHOPINWFU-UHFFFAOYSA-N,ICCN1C(C)NCC1[N+](=O)[O-],016156-90-4,-3.536034937,CC1NCC([N+](=O)[O-])N1CCI
4508,B-9905,2.3.4-Trihydroxybenzaldehyde,CRPNQSVBEWWHIJ-UHFFFAOYSA-N,O=CC1CCC(C(C1O)O)O,002144-08-3,-1.000341097,O=CC1CCC(O)C(O)C1O
4509,B-9906,[2-hydroxy-3-(phenoxy)propyl] acetate,DQUIGLNWFFUKSE-UHFFFAOYSA-N,OC(COC(=O)C)COC1CCCCC1,063715-95-7,-1.129568026,CC(=O)OCC(O)COC1CCCCC1
4510,B-9907,7-methyl-4-phenyl-1-propan-2-ylquinazolin-2-one,JTIGKVIOEQASGT-UHFFFAOYSA-N,CC1CCC2C(C1)N(C(C)C)C(=O)NC2C1CCCCC1,022760-18-5,-4.115404627,CC1CCC2C(C3CCCCC3)NC(=O)N(C(C)C)C2C1
4511,B-9908,[3-[bis(2-chloroethyl)amino]-4-methylphenyl]-piperidin-1-ylmethanone,RUDUXQPKMFPBKF-UHFFFAOYSA-N,ClCCN(C1CC(CCC1C)C(=O)N1CCCCC1)CCCl,021447-87-0,-5.380327633,CC1CCC(C(=O)N2CCCCC2)CC1N(CCCl)CCCl
4512,B-9910,5-dimethylamino-1-ethyl-6-methyl-3-phenylpyrimidine-2.4-dione,OALDUTFOEYTFDS-UHFFFAOYSA-N,CCN1C(C)C(N(C)C)C(=O)N(C1=O)C1CCCCC1,032150-75-7,-1.87440397,CCN1C(=O)N(C2CCCCC2)C(=O)C(N(C)C)C1C
4513,B-9911,3.7-dimethyl-1-(2-methylprop-2-enyl)purine-2.6-dione,DMWQAGFXWKNDBE-UHFFFAOYSA-N,CC(=C)CN1C(=O)N(C)C2C(C1=O)N(C)CN2,063906-62-7,-2.165576302,C=C(C)CN1C(=O)C2C(NCN2C)N(C)C1=O
4514,B-9913,1-(2-Chloroethyl)-2-methyl-5-nitroimidazole,FSFWMJBQLWFXSM-UHFFFAOYSA-N,ClCCN1C(C)NCC1[N+](=O)[O-],013182-81-5,-1.725167826,CC1NCC([N+](=O)[O-])N1CCCl
4515,B-9914,2-(Chloromethyl)-4-nitrophenol,PJNPZIYGODMAQE-UHFFFAOYSA-N,ClCC1CC(CCC1O)[N+](=O)[O-],002973-19-5,-2.303302549,O=[N+]([O-])C1CCC(O)C(CCl)C1
4516,B-9915,N'-hydroxy-2-indol-1-ylethanimidamide,PMNBNUKPDNHZFI-UHFFFAOYSA-N,O/N=C(/CN1CCC2C1CCCC2)\N,004404-22-2,-1.443815336,NC(CN1CCC2CCCCC21)=NO
4517,B-9916,2-(9.10-dihydrophenanthren-2-yl)propanoic acid,QLPNZYZWDNTQFD-UHFFFAOYSA-N,OC(=O)C(C1CCC2C(C1)CCC1C2CCCC1)C,027651-84-9,-5.677663758,CC(C(=O)O)C1CCC2C(CCC3CCCCC32)C1
4518,B-9917,(2S)-2-[3-(benzoyl)phenyl]propanoic acid,DKYWVDODHFEZIM-NSHDSACASA-N,OC(=O)[C@H](C1CCCC(C1)C(=O)C1CCCCC1)C,022161-81-5,-3.7,CC(C(=O)O)C1CCCC(C(=O)C2CCCCC2)C1
4519,B-9918,1-[3-[(E)-3-(4-chlorophenyl)prop-2-enyl]-3.8-diazabicyclo[3.2.1]octan-8-yl]propan-1-one,RAPDCDUGVAFEGB-ONEGZZNKSA-N,CCC(=O)N1C2CCC1CN(C2)C/C=C/C1CCC(CC1)Cl,059038-08-3,-4.458256632,CCC(=O)N1C2CCC1CN(CC=CC1CCC(Cl)CC1)C2
4520,B-9919,5-methylsulfanyl-1.3.4-thiadiazol-2-amine,PCLAZAJARAIGGD-UHFFFAOYSA-N,CSC1NNC(S1)N,005319-77-7,-0.515702772,CSC1NNC(N)S1
4521,B-9922,1-[3-[(E)-2.3-di(phenyl)prop-2-enyl]-3.8-diazabicyclo[3.2.1]octan-8-yl]propan-1-one,REXWOFSLUVLBDP-QNGOZBTKSA-N,CCC(=O)N1C2CCC1CN(C2)C/C(=C/C1CCCCC1)/C1CCCCC1,001794-41-8,-5.716173251,CCC(=O)N1C2CCC1CN(CC(=CC1CCCCC1)C1CCCCC1)C2
4522,B-9923,2-(2.4-dichlorophenyl)-3a.4.5.6.7.7a-hexahydro-4.7-epoxyisoindole-1.3-dione,ORAVWBRRSYFFCC-UHFFFAOYSA-N,ClC1CCC(C(C1)Cl)N1C(=O)C2C(C1=O)C1OC2CC1,007741-91-5,-2.010057935,O=C1C2C3CCC(O3)C2C(=O)N1C1CCC(Cl)CC1Cl
4523,B-9924,4-(1-hydroxy-2-methylaminoethyl)phenol,YRCWQPVGYLYSOX-UHFFFAOYSA-N,CNCC(C1CCC(CC1)O)O,000614-35-7,0.776742974,CNCC(O)C1CCC(O)CC1
4524,B-9925,10-chloro-11b-(2-chlorophenyl)-2.3.5.7-tetrahydro-[1.3]oxazolo[3.2-d][1.4]benzodiazepin-6-one,ZIXNZOBDFKSQTC-UHFFFAOYSA-N,O=C1NC2CCC(CC2C2(N(C1)CCO2)C1CCCCC1Cl)Cl,024166-13-0,-5.796142506,O=C1CN2CCOC2(C2CCCCC2Cl)C2CC(Cl)CCC2N1
4525,B-9926,4.5-dimethyl-1.2.4-triazole-3-thiol,OTVCBBXLGYYSNC-UHFFFAOYSA-N,CN1C(C)N[NH]C1=S,038942-50-6,-1.430863129,CC1NNC(=S)N1C
4526,B-9927,10-(3-dimethylamino-2-methylpropyl)phenothiazine-2-carbonitrile,SLFGIOIONGJGRT-UHFFFAOYSA-N,N#CC1CCC2C(C1)N(CC(CN(C)C)C)C1C(S2)CCCC1,003546-03-0,-5.790155227,CC(CN(C)C)CN1C2CCCCC2SC2CCC(C#N)CC21
4527,B-9929,(1-ethylpiperidin-3-yl) N-(4-acetylphenyl)carbamate,SLYWZSGKTGNBOI-UHFFFAOYSA-N,CCN1CCCC(C1)OC(=O)NC1CCC(CC1)C(=O)C,033531-50-9,-2.830483998,CCN1CCCC(OC(=O)NC2CCC(C(C)=O)CC2)C1
4528,B-9930,(1&aposR.2&aposS.3S.5&aposS.6&aposS.8&aposR.11&aposS)-2&apos-ethenyl-4&apos-methylspiro[1H-indole-3.7&apos-9-oxa-4-azatetracyclo[6.3.1.02.6.05.11]dodecane]-2-one,NFYYATWFXNPTRM-QJICHLCESA-N,C=C[C@]12CN([C@H]3[C@@H]2[C@]2([C@H]4C[C@@H]1[C@@H]3CO4)C(=O)NC1C2CCCC1)C,000509-15-9,-3.032444207,C=CC12CN(C)C3C4COC(CC41)C1(C(=O)NC4CCCCC41)C32
4529,B-9931,2-(2-phenylethyl-(1.2.3.4-tetrahydroquinolin-2-ylmethyl)amino)ethanol,UJBYRIKOTLHOAX-UHFFFAOYSA-N,OCCN(CC1CCC2C(N1)CCCC2)CCC1CCCCC1,023766-86-1,-3.167696632,OCCN(CCC1CCCCC1)CC1CCC2CCCCC2N1
4530,B-9933,1-(3.4-dimethoxyphenyl)propan-2-ylhydrazine,HPKHFBFBFGSLPZ-UHFFFAOYSA-N,NNC(CC1CCC(C(C1)OC)OC)C,016603-07-9,-1.620361215,COC1CCC(CC(C)NN)CC1OC
4531,B-9934,3-(dibutylamino)propyl 4-aminobenzoate,HQFWVSGBVLEQGA-UHFFFAOYSA-N,CCCCN(CCCC)CCCOC(=O)C1CCC(CC1)N,000149-16-6,-3.695019936,CCCCN(CCCC)CCCOC(=O)C1CCC(N)CC1
4532,B-9935,2-[2-(ethyl-methylamino)ethyl]-3-methyl-2-naphthalen-1-ylbutanamide,BZXAWUTXKYHQAW-UHFFFAOYSA-N,CCN(CCC(C1CCCC2C1CCCC2)(C(=O)N)C(C)C)C,001505-90-4,-4.629686284,CCN(C)CCC(C(N)=O)(C(C)C)C1CCCC2CCCCC21
4533,B-9936,1-(3.4-dihydroxyphenyl)-2-methylaminoethanone,PZMVOUYYNKPMSI-UHFFFAOYSA-N,CNCC(=O)C1CCC(C(C1)O)O,000099-45-6,-0.46448588,CNCC(=O)C1CCC(O)C(O)C1
4534,B-9937,N-(phenylamino)formamide,QIWOKEQEGOOGGH-UHFFFAOYSA-N,O=CNNC1CCCCC1,000622-84-4,-0.441183517,O=CNNC1CCCCC1
4535,B-9938,2-phenyl-3a.4.5.6.7.7a-hexahydro-4.7-epoxyisoindole-1.3-dione,PHRHVYRRQVLATP-UHFFFAOYSA-N,O=C1C2C3CCC(C2C(=O)N1C1CCCCC1)O3,017183-11-8,-0.687104251,O=C1C2C3CCC(O3)C2C(=O)N1C1CCCCC1
4536,B-9939,1-[3-[di(phenyl)methyl]-3.8-diazabicyclo[3.2.1]octan-8-yl]propan-1-one,SHAYUWBGXZREDN-UHFFFAOYSA-N,CCC(=O)N1C2CCC1CN(C2)C(C1CCCCC1)C1CCCCC1,063977-68-4,-4.7609201,CCC(=O)N1C2CCC1CN(C(C1CCCCC1)C1CCCCC1)C2