,C_ID,Name,InChIKey,SMILES,CAS,LogS,smiles_canon
3640,B-8792,ethyl 2-ethoxy-2H-quinoline-1-carboxylate,GKQLYSROISKDLL-UHFFFAOYSA-N,CCOC(=O)N1C(OCC)C=CC2C1CCCC2,016357-59-8,-4.118132698,CCOC(=O)N1C(OCC)C=CC2CCCCC21
3641,B-8794,1-chloronaphthalen-2-ol,RMSOEGBYNWXXBG-UHFFFAOYSA-N,OC1CCC2C(C1Cl)CCCC2,000633-99-8,-2.770475324,OC1CCC2CCCCC2C1Cl
3642,B-8796,3.5-Dibromo-2-hydroxybenzaldehyde,JHZOXYGFQMROFJ-UHFFFAOYSA-N,O=CC1CC(Br)CC(C1O)Br,000090-59-5,-3.421720322,O=CC1CC(Br)CC(Br)C1O
3643,B-8797,2-(furan-2-ylmethylamino)-1-(2.2.6.6-tetramethylpiperidin-1-yl)ethanone,JVVTYCMWJNWWET-UHFFFAOYSA-N,O=C(N1C(C)(C)CCCC1(C)C)CNCC1CCCO1,053725-42-1,-3.485621599,CC1(C)CCCC(C)(C)N1C(=O)CNCC1CCCO1
3644,B-8798,3-(2-methoxyphenyl)prop-2-enal,KKVZAVRSVHUSPL-GQCTYLIASA-N,O=C/C=C/C1CCCCC1OC,001504-74-1,-2.005898736,COC1CCCCC1C=CC=O
3645,B-8799,N-prop-2-enyl-N-[3-[2-(trifluoromethyl)phenothiazin-10-yl]propyl]prop-2-en-1-amine,PSICOFASYZDHQP-UHFFFAOYSA-N,C=CCN(CCCN1C2CCCCC2SC2C1CC(CC2)C(F)(F)F)CC=C,063834-03-7,-8.411013604,C=CCN(CC=C)CCCN1C2CCCCC2SC2CCC(C(F)(F)F)CC21
3646,B-8802,5-bromo-3-(1-methylpyrrolidin-2-yl)-1H-indole,HDPUHIPIPLGBTR-UHFFFAOYSA-N,CN1CCCC1C1C[NH]C2C1CC(Br)CC2,019137-86-1,-2.908066763,CN1CCCC1C1CNC2CCC(Br)CC21
3647,B-8803,2.4.6-Tris(dimethylaminomethyl)phenol,AHDSRXYHVZECER-UHFFFAOYSA-N,CN(CC1CC(CN(C)C)C(C(C1)CN(C)C)O)C,000090-72-2,0.505527826,CN(C)CC1CC(CN(C)C)C(O)C(CN(C)C)C1
3648,B-8804,(2S)-N.N-diethyl-2-naphthalen-1-yloxypropanamide,WXZVAROIGSFCFJ-ZDUSSCGKSA-N,CCN(C(=O)[C@@H](OC1CCCC2C1CCCC2)C)CC,041643-36-1,-3.5699999,CCN(CC)C(=O)C(C)OC1CCCC2CCCCC21
3649,B-8806,N.N-dimethyl-3-phenyl-3-pyridin-2-ylpropan-1-amine,IJHNSHDBIRRJRN-UHFFFAOYSA-N,CN(CCC(C1CCCCN1)C1CCCCC1)C,000086-21-5,-1.028082953,CN(C)CCC(C1CCCCC1)C1CCCCN1
3650,B-8807,3-(2-methylpiperidin-1-yl)propyl 4-pentoxybenzoate,LUEYGEDBAGAETN-UHFFFAOYSA-N,CCCCCOC1CCC(CC1)C(=O)OCCCN1CCCCC1C,064050-37-9,-6.01590874,CCCCCOC1CCC(C(=O)OCCCN2CCCCC2C)CC1
3651,B-8809,2-(5-ethylpyridin-2-yl)-1H-benzimidazole,XOVPZXXZORJJCG-UHFFFAOYSA-N,CCC1CCC(NC1)C1NC2C([NH]1)CCCC2,067273-43-2,-3.262488067,CCC1CCC(C2NC3CCCCC3N2)NC1
3652,B-8810,5-chloro-3-prop-2-enyl-1.3-benzoxazol-2-one,QRRNAEXZIDFDBE-UHFFFAOYSA-N,C=CCN1C(=O)OC2C1CC(Cl)CC2,024963-36-8,-3.447549765,C=CCN1C(=O)OC2CCC(Cl)CC21
3653,B-8811,N.N'-Diethyl-6-(trifluoromethyl)-1.3.5-triazine-2.4-diamine,VLKWQQFBFMQSNA-UHFFFAOYSA-N,CCNC1NC(NCC)NC(N1)C(F)(F)F,000721-61-9,-3.237924259,CCNC1NC(NCC)NC(C(F)(F)F)N1
3654,B-8812,ethyl 2-methoxy-2H-1.3-benzoxazole-3-carboxylate,OFDMOELKFCRQKE-UHFFFAOYSA-N,CCOC(=O)N1C(OC)OC2C1CCCC2,030831-96-0,-3.022412807,CCOC(=O)N1C(OC)OC2CCCCC21
3655,B-8813,N.N-dimethyl-N'-[4-(trichloromethyl)-6-[3-(trichloromethyl)phenyl]-1.3.5-triazin-2-yl]propane-1.3-diamine,SDSMMBWQNDFCEX-UHFFFAOYSA-N,CN(CCCNC1NC(NC(N1)C1CCCC(C1)C(Cl)(Cl)Cl)C(Cl)(Cl)Cl)C,029622-48-8,-6.939958141,CN(C)CCCNC1NC(C2CCCC(C(Cl)(Cl)Cl)C2)NC(C(Cl)(Cl)Cl)N1
3656,B-8814,(1-ethylpiperidin-3-yl) 2-hydroxy-2-phenylpentanoate,UUCAQGDHTXMZSL-UHFFFAOYSA-N,CCCC(C1CCCCC1)(C(=O)OC1CCCN(C1)CC)O,063917-17-9,-2.735931768,CCCC(O)(C(=O)OC1CCCN(CC)C1)C1CCCCC1
3657,B-8815,2-chloro-2-(3-chloro-4-cyclohexylphenyl)acetic acid,GXEUNRBWEAIPCN-UHFFFAOYSA-N,OC(=O)C(C1CCC(C(C1)Cl)C1CCCCC1)Cl,036616-52-1,-5.542226964,O=C(O)C(Cl)C1CCC(C2CCCCC2)C(Cl)C1
3658,B-8816,2-(1H-indol-3-yl)-N-methylethanamine,NCIKQJBVUNUXLW-UHFFFAOYSA-N,CNCCC1C[NH]C2C1CCCC2,000061-49-4,-0.944500094,CNCCC1CNC2CCCCC12
3659,B-8818,11-ethyl-6-methylpyrido[3.2-c][1.5]benzodiazepin-5-one,QIBWCUCLHZVYNL-UHFFFAOYSA-N,CCN1C2NCCCC2C(=O)N(C2C1CCCC2)C,132686-75-0,-3.3199999,CCN1C2CCCCC2N(C)C(=O)C2CCCNC21
3660,B-8819,3-(2-methylpiperidin-1-yl)propyl pyridine-3-carboxylate,UYOCGYKHIPHFBD-UHFFFAOYSA-N,CC1CCCCN1CCCOC(=O)C1CCCNC1,064038-02-4,-2.332526204,CC1CCCCN1CCCOC(=O)C1CCCNC1
3661,B-8820,3-(2-methylpiperidin-1-yl)propyl 4-ethoxybenzoate,ZNSUNUVCVXQNKB-UHFFFAOYSA-N,CCOC1CCC(CC1)C(=O)OCCCN1CCCCC1C,063916-80-3,-4.148434895,CCOC1CCC(C(=O)OCCCN2CCCCC2C)CC1
3662,B-8821,(1R.9S.10R)-4-methoxy-17-methyl-17-azatetracyclo[7.5.3.01.10.02.7]heptadeca-2(7).3.5-trien-8-one,UOCRGKKCNCIQCZ-QILLFSRXSA-N,COC1CCC2C(C1)[C@]13CCCC[C@H]3[C@@H](C2=O)N(CC1)C,018050-88-9,-3.727080389,COC1CCC2C(=O)C3C4CCCCC4(CCN3C)C2C1
3663,B-8823,ethyl 2-methylsulfanyl-2H-quinoline-1-carboxylate,SDSIHESJXQVDJI-UHFFFAOYSA-N,CCOC(=O)N1C(SC)C=CC2C1CCCC2,029680-85-1,-4.189945177,CCOC(=O)N1C(SC)C=CC2CCCCC21
3664,B-8824,(1R.9R.10R)-17-(cyclopropylmethyl)-17-azatetracyclo[7.5.3.01.10.02.7]heptadeca-2(7).3.5-trien-4-ol,NLBUEDSBXVNAPB-DFQSSKMNSA-N,OC1CCC2C(C1)[C@]13CCCC[C@H]3[C@@H](C2)N(CC1)CC1CC1,004163-15-9,-4.448096413,OC1CCC2CC3C4CCCCC4(CCN3CC3CC3)C2C1
3665,B-8825,2-thiophen-3-ylacetic acid,RCNOGGGBSSVMAS-UHFFFAOYSA-N,OC(=O)CC1CSCC1,006964-21-2,-0.909776024,O=C(O)CC1CCSC1
3666,B-8826,6-dimethylamino-4.4-di(phenyl)hexan-3-one,WCJFBSYALHQBSK-UHFFFAOYSA-N,CCC(=O)C(C1CCCCC1)(C1CCCCC1)CCN(C)C,000467-85-6,-2.995649881,CCC(=O)C(CCN(C)C)(C1CCCCC1)C1CCCCC1
3667,B-8828,2-dimethylaminoethyl 2-(4-chlorophenoxy)acetate,XZTYGFHCIAKPGJ-UHFFFAOYSA-N,CN(CCOC(=O)COC1CCC(CC1)Cl)C,000051-68-3,-1.742752078,CN(C)CCOC(=O)COC1CCC(Cl)CC1
3668,B-8829,N-(5-chloro-1.3-benzoxazol-2-yl)-2-methylpropanamide,YFQMJRKDDFCXOC-UHFFFAOYSA-N,O=C(C(C)C)NC1NC2C(O1)CCC(C2)Cl,064037-19-0,-3.499852719,CC(C)C(=O)NC1NC2CC(Cl)CCC2O1
3669,B-8830,6.6.9-trimethyl-1-pentyl-6a.7.8.10a-tetrahydrobenzo[c]chromen-3-ol,SBDHCUZETSWOAX-UHFFFAOYSA-N,CCCCCC1CC(O)CC2C1C1C=C(C)CCC1C(O2)(C)C,063975-76-8,-7.400667818,CCCCCC1CC(O)CC2OC(C)(C)C3CCC(C)=CC3C12
3670,B-8833,1-(2.6-dimethylphenoxy)propan-2-amine,VLPIATFUUWWMKC-UHFFFAOYSA-N,CC(COC1C(C)CCCC1C)N,180966-61-4,-1.337142008,CC(N)COC1C(C)CCCC1C
3671,B-8834,1-(3-chlorophenyl)propan-2-ylhydrazine,OBRDCSSSDNLWTA-UHFFFAOYSA-N,NNC(CC1CCCC(C1)Cl)C,016602-97-4,-2.287752369,CC(CC1CCCC(Cl)C1)NN
3672,B-8837,phenyl-(2H-quinolin-1-yl)methanone,RSIOYTUKUFAJPC-UHFFFAOYSA-N,O=C(N1CC=CC2C1CCCC2)C1CCCCC1,029724-68-3,-3.682287227,O=C(C1CCCCC1)N1CC=CC2CCCCC21
3673,B-8838,[(3R.4R)-1.3-dimethyl-4-phenylpiperidin-4-yl] propanoate,UVAZQQHAVMNMHE-CZUORRHYSA-N,CCC(=O)O[C@@]1(CCN(C[C@H]1C)C)C1CCCCC1,025123-05-1,-2.515789092,CCC(=O)OC1(C2CCCCC2)CCN(C)CC1C
3674,B-8839,(1-propylpiperidin-3-yl) N-(2-chloro-6-methylphenyl)carbamate,RBEUQTCXHILJSS-UHFFFAOYSA-N,CCCN1CCCC(C1)OC(=O)NC1C(C)CCCC1Cl,031755-20-1,-4.689054621,CCCN1CCCC(OC(=O)NC2C(C)CCCC2Cl)C1
3675,B-8840,4-dimethylamino-2-phenyl-2-propan-2-ylpentanenitrile,WFLSCFISQHLEED-UHFFFAOYSA-N,CC(C(C1CCCCC1)(C#N)CC(N(C)C)C)C,000077-51-0,-3.192169562,CC(CC(C#N)(C(C)C)C1CCCCC1)N(C)C
3676,B-8841,5-fluoro-1.3-benzoxazol-2-amine,PFPSBRGOJCFWKD-UHFFFAOYSA-N,FC1CCC2C(C1)NC(O2)N,001682-39-9,-1.693658468,NC1NC2CC(F)CCC2O1
3677,B-8842,4-Phenylpiperidine-4-carbaldehyde,XCENPWBBAXQVCG-UHFFFAOYSA-N,O=CC1(CCNCC1)C1CCCCC1,006952-94-9,-1.098077299,O=CC1(C2CCCCC2)CCNCC1
3678,B-8843,N-methyl-2H-quinoline-1-carboxamide,KYSHMUXEDIVXGE-UHFFFAOYSA-N,CNC(=O)N1CC=CC2C1CCCC2,030831-89-1,-2.034139594,CNC(=O)N1CC=CC2CCCCC21
3679,B-8844,6.6.9-trimethyl-3-pentylbenzo[c]chromen-1-ol,VBGLYOIFKLUMQG-UHFFFAOYSA-N,CCCCCC1CC(O)C2C(C1)OC(C1C2CC(C)CC1)(C)C,000521-35-7,-6.741542242,CCCCCC1CC(O)C2C(C1)OC(C)(C)C1CCC(C)CC21
3680,B-8846,N-propan-2-ylbenzamide,INOVPKZAEASFME-UHFFFAOYSA-N,CC(NC(=O)C1CCCCC1)C,005440-69-7,-2.195740034,CC(C)NC(=O)C1CCCCC1
3681,B-8847,5.7-dibromo-1.3-benzoxazol-2-amine,FXYIDUGIODSYAI-UHFFFAOYSA-N,BrC1CC(Br)C2C(C1)NC(O2)N,052112-67-1,-4.060444996,NC1NC2CC(Br)CC(Br)C2O1
3682,B-8848,propyl 5-nitrofuran-2-carboxylate,KDWMOTCARFFLTQ-UHFFFAOYSA-N,[O-][N+](=O)C1CCC(O1)C(=O)OCCC,020001-36-9,-2.538783995,CCCOC(=O)C1CCC([N+](=O)[O-])O1
3683,B-8851,(E)-3-(4-chlorophenyl)-1-phenylprop-2-en-1-one,ABGIIXRNMHUKII-DHZHZOJOSA-N,ClC1CCC(CC1)/C=C/C(=O)C1CCCCC1,022252-16-0,-4.644710666,O=C(C=CC1CCC(Cl)CC1)C1CCCCC1
3684,B-8852,1.3.5-triethyl-5-phenyl-1.3-diazinane-2.4.6-trione,UGVJFCFVDRFHFP-UHFFFAOYSA-N,CCC1(C2CCCCC2)C(=O)N(CC)C(=O)N(C1=O)CC,038024-60-1,-3.638401879,CCN1C(=O)N(CC)C(=O)C(CC)(C2CCCCC2)C1=O
3685,B-8853,2-diethylaminoethyl 4-butoxybenzoate,QNIUOGIMJWORNZ-UHFFFAOYSA-N,CCCCOC1CCC(CC1)C(=O)OCCN(CC)CC,003772-43-8,-3.8399999,CCCCOC1CCC(C(=O)OCCN(CC)CC)CC1
3686,B-8854,7-chloro-1.3-benzoxazol-2-amine,ZNJCQBBJHFLQAG-UHFFFAOYSA-N,NC1NC2C(O1)C(Cl)CCC2,064037-11-2,-2.193382294,NC1NC2CCCC(Cl)C2O1
3687,B-8855,2-aminocyclohepta-2.4.6-trien-1-one,PIOPKWFBKZTUMS-UHFFFAOYSA-N,NC1CCCCCC1=O,006264-93-3,0.403854391,NC1CCCCCC1=O
3688,B-8856,(2.5-dimethylfuran-3-yl)-(4-hydroxy-3.5-diiodophenyl)methanone,JCKOFFJWBOVAAV-UHFFFAOYSA-N,CC1OC(C(C1)C(=O)C1CC(I)C(C(C1)I)O)C,004662-17-3,-6.698996906,CC1CC(C(=O)C2CC(I)C(O)C(I)C2)C(C)O1
3689,B-8858,4-chloro-6-(4-methylpiperazin-1-yl)-5-methylsulfanyl-N-propan-2-ylpyrimidin-2-amine,UMMYPDFDLDVDCZ-UHFFFAOYSA-N,CSC1C(Cl)NC(NC1N1CCN(CC1)C)NC(C)C,055477-19-5,-2.495178771,CSC1C(Cl)NC(NC(C)C)NC1N1CCN(C)CC1
3690,B-8859,[(1R.2S)-2-methylamino-1-phenylpropyl] acetate,WCDSTFHSWVDGPD-CABZTGNLSA-N,CN[C@H]([C@@H](C1CCCCC1)OC(=O)C)C,063950-97-0,-1.336994338,CNC(C)C(OC(C)=O)C1CCCCC1
3691,B-8860,(2Z)-2-(dimethylhydrazinylidene)-1-(4-methylphenyl)ethanone,BYWZDRVDOARNLV-WQLSENKSSA-N,CC1CCC(CC1)C(=O)/C=N\N(C)C,024407-35-0,-1.69611676,CC1CCC(C(=O)C=NN(C)C)CC1
3692,B-8862,2-[(3-chloro-2-methylphenyl)amino]pyridine-3-carboxylic acid,CLOMYZFHNHFSIQ-UHFFFAOYSA-N,OC(=O)C1CCCNC1NC1CCCC(C1C)Cl,017737-65-4,-6.450685437,CC1C(Cl)CCCC1NC1NCCCC1C(=O)O
3693,B-8863,N-(1-phenylethylidene)hydroxylamine,JHNRZXQVBKRYKN-VQHVLOKHSA-N,O/N=C(/C1CCCCC1)\C,000613-91-2,-2.37560257,CC(=NO)C1CCCCC1
3694,B-8864,(E)-3-(4-methylphenyl)-1-phenylprop-2-en-1-one,XNLFHCPVTULKIV-VAWYXSNFSA-N,CC1CCC(CC1)/C=C/C(=O)C1CCCCC1,004224-87-7,-4.412920901,CC1CCC(C=CC(=O)C2CCCCC2)CC1
3695,B-8865,butyl 2-methoxy-2H-quinoline-1-carboxylate,RXUYADHAQWHONV-UHFFFAOYSA-N,CCCCOC(=O)N1C(OC)C=CC2C1CCCC2,030831-73-3,-4.857267703,CCCCOC(=O)N1C(OC)C=CC2CCCCC21
3696,B-8866,3-(2-methylpiperidin-1-yl)propyl 2-hydroxybenzoate,PISUWIAFYNMOIB-UHFFFAOYSA-N,CC1CCCCN1CCCOC(=O)C1CCCCC1O,063916-86-9,-3.538334562,CC1CCCCN1CCCOC(=O)C1CCCCC1O
3697,B-8867,2.2-diethyl-1-phenylpropane-1.3-diol,PGIQMCOLYCTABQ-UHFFFAOYSA-N,CCC(C(C1CCCCC1)O)(CO)CC,063834-79-7,-3.093382052,CCC(CC)(CO)C(O)C1CCCCC1
3698,B-8868,4-Hydroxy-3-iodo-5-nitrobenzonitrile,SGKGVABHDAQAJO-UHFFFAOYSA-N,N#CC1CC(I)C(C(C1)[N+](=O)[O-])O,001689-89-0,-4.660538236,N#CC1CC(I)C(O)C([N+](=O)[O-])C1
3699,B-8871,N-[(1-dimethylaminocyclohexyl)methyl]benzamide,GMBMAHMMQCNOGV-UHFFFAOYSA-N,CN(C1(CCCCC1)CNC(=O)C1CCCCC1)C,063886-94-2,-3.77512787,CN(C)C1(CNC(=O)C2CCCCC2)CCCCC1
3700,B-8874,(1-methylpiperidin-4-yl) N-(2-chloro-6-methylphenyl)carbamate,GLYGDCUZVIJKRL-UHFFFAOYSA-N,CN1CCC(CC1)OC(=O)NC1C(C)CCCC1Cl,033531-34-9,-3.645929417,CC1CCCC(Cl)C1NC(=O)OC1CCN(C)CC1
3701,B-8875,(1-methylpiperidin-3-yl) N-(2-chloro-6-methylphenyl)carbamate,JWVJIHOQHASVCJ-UHFFFAOYSA-N,CN1CCCC(C1)OC(=O)NC1C(C)CCCC1Cl,031755-15-4,-3.645929417,CC1CCCC(Cl)C1NC(=O)OC1CCCN(C)C1
3702,B-8876,3-[1-(phenylmethyl)pyrrolidin-2-yl]-1H-indole,UORKEUUXJMNISC-UHFFFAOYSA-N,C1CCC(CC1)CN1CCCC1C1C[NH]C2C1CCCC2,019137-96-3,-3.586598304,C1CCC(CN2CCCC2C2CNC3CCCCC32)CC1
3703,B-8877,2-[(2.4-dichlorophenyl)methyl]-4-(2.4.4-trimethylpentan-2-yl)phenol,HQVZOORKDNCGCK-UHFFFAOYSA-N,ClC1CCC(C(C1)Cl)CC1CC(CCC1O)C(CC(C)(C)C)(C)C,037693-01-9,-8.224437624,CC(C)(C)CC(C)(C)C1CCC(O)C(CC2CCC(Cl)CC2Cl)C1
3704,B-8879,8-chloro-10-(3-dimethylaminopropyl)-1-methoxyphenothiazin-2-ol,SMPOXMYVWIXCMT-UHFFFAOYSA-N,COC1C(O)CCC2C1N(CCCN(C)C)C1C(S2)CCC(C1)Cl,025946-86-5,-5.549322356,COC1C(O)CCC2SC3CCC(Cl)CC3N(CCCN(C)C)C21
3705,B-8880,2-phenyl-N-(1.2.3.4-tetrahydroquinolin-2-ylmethyl)ethanamine,SDDCXRABBOAPJP-UHFFFAOYSA-N,C1CCC(CC1)CCNCC1CCC2C(N1)CCCC2,023766-89-4,-3.498657948,C1CCC(CCNCC2CCC3CCCCC3N2)CC1
3706,B-8884,N-phenyl-N-(1-piperidin-1-ylpropan-2-yl)propanamide,DHTRHEVNFFZCNU-UHFFFAOYSA-N,CCC(=O)N(C1CCCCC1)C(CN1CCCCC1)C,000129-83-9,-2.946335148,CCC(=O)N(C(C)CN1CCCCC1)C1CCCCC1
3707,B-8885,2-diethylamino-1-(2.2.6.6-tetramethyl-4-phenyl-3H-pyridin-1-yl)ethanone,DTTVBSRGHJKBOQ-UHFFFAOYSA-N,CCN(CC(=O)N1C(C)(C)CC(=CC1(C)C)C1CCCCC1)CC,053725-52-3,-5.656796808,CCN(CC)CC(=O)N1C(C)(C)C=C(C2CCCCC2)CC1(C)C
3708,B-8886,2-piperazin-1-ylquinoline,XRXDAJYKGWNHTQ-UHFFFAOYSA-N,N1CCN(CC1)C1CCC2C(N1)CCCC2,130895-61-3,-1.490865139,C1CCC2NC(N3CCNCC3)CCC2C1
3709,B-8887,(1-propylpyrrolidin-3-yl) N-(2-chloro-6-methylphenyl)carbamate,XZNWXEXXXURADS-UHFFFAOYSA-N,CCCN1CCC(C1)OC(=O)NC1C(C)CCCC1Cl,031772-85-7,-4.167105225,CCCN1CCC(OC(=O)NC2C(C)CCCC2Cl)C1
3710,B-8888,2-[(4-butylsulfanylphenyl)-phenylmethyl]sulfanyl-N.N-dimethylethanamine,IZLPZXSZLLELBJ-UHFFFAOYSA-N,CCCCSC1CCC(CC1)C(C1CCCCC1)SCCN(C)C,000486-17-9,-5.965858004,CCCCSC1CCC(C(SCCN(C)C)C2CCCCC2)CC1
3711,B-8889,1.3-Dihydroindol-2-one,JYGFTBXVXVMTGB-UHFFFAOYSA-N,O=C1CC2C(N1)CCCC2,118914-78-6,-1.163965507,O=C1CC2CCCCC2N1
3712,B-8890,2-ethynyl-7-azatricyclo[9.4.0.03.8]pentadeca-1(15).3(8).4.6.11.13-hexaen-2-ol,CDBZVPAISMFCEH-UHFFFAOYSA-N,C#CC1(O)C2CCCCC2CCC2C1CCCN2,031721-91-2,-3.802222177,C#CC1(O)C2CCCCC2CCC2NCCCC21
3713,B-8891,(1-ethylpiperidin-3-yl) N-(4-chlorophenyl)carbamate,XBQPHDPNQNWVDG-UHFFFAOYSA-N,CCN1CCCC(C1)OC(=O)NC1CCC(CC1)Cl,033531-54-3,-3.598340746,CCN1CCCC(OC(=O)NC2CCC(Cl)CC2)C1
3714,B-8893,1-(2.4-dimethyl-1H-pyrrol-3-yl)ethanone,VGZCKCJMYREIKA-UHFFFAOYSA-N,CC(=O)C1C(C)C[NH]C1C,002386-25-6,-1.614852928,CC(=O)C1C(C)CNC1C
3715,B-8894,3-(4-methylphenoxy)propane-1.2-diol,HEILYJUNOUXHJQ-UHFFFAOYSA-N,OCC(COC1CCC(CC1)C)O,017131-24-7,-1.731676935,CC1CCC(OCC(O)CO)CC1
3716,B-8895,4-Ethoxy-3-hydroxybenzaldehyde,BCLVKHGKEGFPJV-UHFFFAOYSA-N,CCOC1CCC(CC1O)C=O,002539-53-9,-1.733429899,CCOC1CCC(C=O)CC1O
3717,B-8896,1-(6-chloro-1.4-dihydro-2.3-benzoxazin-3-yl)propan-1-one,HXLCWJFBAHHGQB-UHFFFAOYSA-N,CCC(=O)N1CC2CC(Cl)CCC2CO1,021977-39-9,-3.013033563,CCC(=O)N1CC2CC(Cl)CCC2CO1
3718,B-8898,5-methoxy-3-(1-methylpyrrolidin-2-yl)-1H-indole,NNCOKSDPKDOAOW-UHFFFAOYSA-N,COC1CCC2C(C1)C(C[NH]2)C1CCCN1C,019137-94-1,-1.861255419,COC1CCC2NCC(C3CCCN3C)C2C1
3719,B-8899,3-Phenylpentanoic acid,NJEKDDOCPZKREE-UHFFFAOYSA-N,CCC(C1CCCCC1)CC(=O)O,005669-17-0,-2.834342736,CCC(CC(=O)O)C1CCCCC1
3720,B-8900,6-methyl-1.3-benzothiazol-2-amine,DZWTXWPRWRLHIL-UHFFFAOYSA-N,CC1CCC2C(C1)SC(N2)N,002536-91-6,-2.661558888,CC1CCC2NC(N)SC2C1
3721,B-8901,(1S)-6.7-dimethoxy-1-methyl-1.2.3.4-tetrahydroisoquinoline,HMYJLVDKPJHJCF-QMMMGPOBSA-N,COC1CC2[C@H](C)NCCC2CC1OC,000493-48-1,-3.054091623,COC1CC2CCNC(C)C2CC1OC
3722,B-8902,5-ethyl-1.3-dimethyl-5-phenyl-1.3-diazinane-2.4.6-trione,RPJARFKGODFVHL-UHFFFAOYSA-N,CCC1(C2CCCCC2)C(=O)N(C)C(=O)N(C1=O)C,000730-66-5,-2.595261029,CCC1(C2CCCCC2)C(=O)N(C)C(=O)N(C)C1=O
3723,B-8904,(3.5-dibromo-4-hydroxyphenyl)-(2-ethyl-1-benzofuran-3-yl)methanone,WHQCHUCQKNIQEC-UHFFFAOYSA-N,CCC1OC2C(C1C(=O)C1CC(Br)C(C(C1)Br)O)CCCC2,003562-84-3,-6.626588274,CCC1OC2CCCCC2C1C(=O)C1CC(Br)C(O)C(Br)C1
3724,B-8906,3-(2-methylphenoxy)propan-1-ol,RQROCSGRAXVVFN-UHFFFAOYSA-N,OCCCOC1CCCCC1C,052448-99-4,-1.730724799,CC1CCCCC1OCCCO
3725,B-8907,3-(2-methylpiperidin-1-yl)propyl 4-prop-2-enoxybenzoate,BBAOAXCNMFWVBH-UHFFFAOYSA-N,C=CCOC1CCC(CC1)C(=O)OCCCN1CCCCC1C,063917-74-8,-4.539277252,C=CCOC1CCC(C(=O)OCCCN2CCCCC2C)CC1
3726,B-8908,N-Ethyl-1.3.4-thiadiazol-2-amine,PINNQKFNRKECFX-UHFFFAOYSA-N,CCNC1NNCS1,013275-68-8,-1.000608932,CCNC1NNCS1
3727,B-8910,(NE)-N-(1-thiophen-2-ylethylidene)hydroxylamine,HODHTVIKKXGOCP-FNORWQNLSA-N,O/N=C(/C1CCCS1)\C,001956-45-2,-1.776885783,CC(=NO)C1CCCS1
3728,B-8912,1-phenylpropan-2-ylhydrazine,VXTWEDPZMSVFEF-UHFFFAOYSA-N,NNC(CC1CCCCC1)C,000055-52-7,-1.115289763,CC(CC1CCCCC1)NN
3729,B-8913,(1R.9R.10R)-17-(3-methylbut-2-enyl)-17-azatetracyclo[7.5.3.01.10.02.7]heptadeca-2(7).3.5-trien-4-ol,GKXJMIOXPSNPJS-CEWLAPEOSA-N,CC(=CCN1CC[C@@]23[C@H]([C@H]1CC1C3CC(CC1)O)CCCC2)C,024921-64-0,-4.335052322,CC(C)=CCN1CCC23CCCCC2C1CC1CCC(O)CC13
3730,B-8914,1-methoxy-3.5-dinitrobenzene,OTMLGCBMOMNGCV-UHFFFAOYSA-N,COC1CC(CC(C1)[N+](=O)[O-])[N+](=O)[O-],005327-44-6,-2.813799798,COC1CC([N+](=O)[O-])CC([N+](=O)[O-])C1
3731,B-8915,5-methyl-4.4-di(phenyl)-6-pyrrolidin-1-ylhexan-3-one,ZPRSVXOVKPKZDL-UHFFFAOYSA-N,CCC(=O)C(C1CCCCC1)(C1CCCCC1)C(CN1CCCC1)C,063765-89-9,-4.939093569,CCC(=O)C(C(C)CN1CCCC1)(C1CCCCC1)C1CCCCC1
3732,B-8918,2-methyl-3-(3-methylphenoxy)propane-1.2-diol,RSTUMYIIRQDRKC-UHFFFAOYSA-N,OCC(COC1CCCC(C1)C)(O)C,063991-96-8,-1.879501049,CC1CCCC(OCC(C)(O)CO)C1
3733,B-8919,1-(1.3-benzodioxol-5-yl)-4.4-dimethylpent-1-en-3-ol,IBLNKMRFIPWSOY-FNORWQNLSA-N,OC(C(C)(C)C)/C=C/C1CCC2C(C1)OCO2,049763-96-4,-3.546288791,CC(C)(C)C(O)C=CC1CCC2OCOC2C1
3734,B-8920,6-chloro-1.3-benzoxazol-2-amine,QDMXVLGVKMTTIT-UHFFFAOYSA-N,ClC1CCC2C(C1)OC(N2)N,052112-68-2,-2.532200851,NC1NC2CCC(Cl)CC2O1
3735,B-8921,(1-ethylpiperidin-3-yl) N-(3-chlorophenyl)carbamate,POVKKBUQFDAVOF-UHFFFAOYSA-N,CCN1CCCC(C1)OC(=O)NC1CCCC(C1)Cl,033531-55-4,-3.598340746,CCN1CCCC(OC(=O)NC2CCCC(Cl)C2)C1
3736,B-8923,2-(5.6-dihydrobenzo[b][1.5]benzodiazepin-11-yl)-N.N-diethylethanamine,NBCLKMSYLLWGFG-UHFFFAOYSA-N,CCN(CCN1C2CCCCC2NCC2C1CCCC2)CC,063918-63-8,-4.828980469,CCN(CC)CCN1C2CCCCC2CNC2CCCCC21
3737,B-8924,1.2.4-Triazin-3-amine,MJIWQHRXSLOUJN-UHFFFAOYSA-N,NC1NCCNN1,001120-99-6,1.017308239,NC1NCCNN1
3738,B-8926,N'.N'-dimethyl-N-phenyl-N-(thiophen-2-ylmethyl)ethane-1.2-diamine,LDYJXVUOVPVZKA-UHFFFAOYSA-N,CN(CCN(C1CCCCC1)CC1CCCS1)C,000493-78-7,-2.258484856,CN(C)CCN(CC1CCCS1)C1CCCCC1
3739,B-8927,ethyl 2-(2-diethylaminoethoxy)-6-methyl-3-propan-2-ylbenzoate,LRUBEPGLRBIWIK-UHFFFAOYSA-N,CCOC(=O)C1C(C)CCC(C1OCCN(CC)CC)C(C)C,052073-25-3,-4.876700416,CCOC(=O)C1C(C)CCC(C(C)C)C1OCCN(CC)CC
3740,B-8928,phenylmethyl 2H-quinoline-1-carboxylate,NXWWSYGSSAHNRR-UHFFFAOYSA-N,O=C(N1CC=CC2C1CCCC2)OCC1CCCCC1,017718-19-3,-5.333851798,O=C(OCC1CCCCC1)N1CC=CC2CCCCC21
3741,B-8929,4-chloro-3-(1-methylpyrrolidin-2-yl)-1H-indole,ROUPHMNZHLBCGO-UHFFFAOYSA-N,CN1CCCC1C1C[NH]C2C1C(Cl)CCC2,019137-84-9,-2.375366775,CN1CCCC1C1CNC2CCCC(Cl)C21
3742,B-8930,2-(3-methyl-3.8-diazabicyclo[3.2.1]octan-8-yl)-2-oxo-N-phenylacetamide,GFOAMOJEXALILA-UHFFFAOYSA-N,CN1CC2CCC(C1)N2C(=O)C(=O)NC1CCCCC1,063990-38-5,-1.875595451,CN1CC2CCC(C1)N2C(=O)C(=O)NC1CCCCC1
3743,B-8931,2-[(2-methoxyphenoxy)methyl]oxirane,RJNVSQLNEALZLC-UHFFFAOYSA-N,COC1CCCCC1OCC1CO1,002210-74-4,-1.52176273,COC1CCCCC1OCC1CO1
3744,B-8932,2-[(2-chlorophenyl)hydrazinylidene]propanedinitrile,WJLRKYSNJJCEPP-UHFFFAOYSA-N,N#CC(=NNC1CCCCC1Cl)C#N,055653-03-7,-3.358100856,N#CC(C#N)=NNC1CCCCC1Cl
3745,B-8933,3-(2-methylpiperidin-1-yl)propyl 4-butan-2-yloxybenzoate,VVFLDPAQGSOAKR-UHFFFAOYSA-N,CCC(OC1CCC(CC1)C(=O)OCCCN1CCCCC1C)C,063916-69-8,-5.128607667,CCC(C)OC1CCC(C(=O)OCCCN2CCCCC2C)CC1
3746,B-8934,4-Ethoxy-6-methyl-1.3.5-triazin-2-amine,WBYRNUWFQADAPF-UHFFFAOYSA-N,CCOC1NC(C)NC(N1)N,003882-66-4,-1.824396343,CCOC1NC(C)NC(N)N1
3747,B-8937,1-(7-chloro-1.4-dihydro-2.3-benzoxazin-3-yl)propan-1-one,AVFGEQIITULSTD-UHFFFAOYSA-N,CCC(=O)N1OCC2C(C1)CCC(C2)Cl,021977-20-8,-3.013033563,CCC(=O)N1CC2CCC(Cl)CC2CO1
3748,B-8938,5-bromo-1.3-benzoxazol-2-amine,HMRSJGDFTOUVBW-UHFFFAOYSA-N,BrC1CCC2C(C1)NC(O2)N,064037-07-6,-2.726388931,NC1NC2CC(Br)CCC2O1
3749,B-8939,2-diethylaminoethyl 2.2-di(phenyl)pentanoate,SNTQPLDRUZOSDP-UHFFFAOYSA-N,CCCC(C1CCCCC1)(C1CCCCC1)C(=O)OCCN(CC)CC,000302-33-0,-5.748367442,CCCC(C(=O)OCCN(CC)CC)(C1CCCCC1)C1CCCCC1
3750,B-8941,N.N-diethyl-2-hydroxybenzamide,ZVYXEXAXXWINEH-UHFFFAOYSA-N,CCN(C(=O)C1CCCCC1O)CC,019311-91-2,-1.744531269,CCN(CC)C(=O)C1CCCCC1O
3751,B-8942,5-bromo-6-chloro-1.3-benzoxazol-2-amine,SMXDRKKGVLJUFQ-UHFFFAOYSA-N,NC1OC2C(N1)CC(C(C2)Cl)Br,064037-09-8,-3.527837028,NC1NC2CC(Br)C(Cl)CC2O1
3752,B-8943,N.N-diethyl-2-(1H-indol-3-yl)ethanamine,LSSUMOWDTKZHHT-UHFFFAOYSA-N,CCN(CCC1C[NH]C2C1CCCC2)CC,000061-51-8,-2.270654746,CCN(CC)CCC1CNC2CCCCC12
3753,B-8944,4-phenyl-1.3-thiazol-2-amine,PYSJLPAOBIGQPK-UHFFFAOYSA-N,NC1SCC(N1)C1CCCCC1,002010-06-2,-2.698322386,NC1NC(C2CCCCC2)CS1
3754,B-8945,2-methyl-4-phenyl-3.4-dihydro-1H-isoquinolin-8-amine,XXPANQJNYNUNES-UHFFFAOYSA-N,CN1CC(C2CCCCC2)C2C(C1)C(N)CCC2,089664-20-0,-2.93080419,CN1CC2C(N)CCCC2C(C2CCCCC2)C1
3755,B-8946,(5E)-5-(phenylmethylidene)-2-sulfanylidene-1.3-thiazolidin-4-one,OONWCXLYKDWKOU-SOFGYWHQSA-N,O=C1NC(=S)S/C/1=C/C1CCCCC1,174813-24-2,-1.782672869,O=C1NC(=S)SC1=CC1CCCCC1