,C_ID,Name,InChIKey,SMILES,CAS,LogS,smiles_canon
4211,B-9544,1-[3-[(E)-3-phenylprop-2-enyl]-3.8-diazabicyclo[3.2.1]octan-8-yl]propan-1-one,RKNSPEOBXHFNTD-RMKNXTFCSA-N,CCC(=O)N1C2CCC1CN(C2)C/C=C/C1CCCCC1,000448-34-0,-3.65597456,CCC(=O)N1C2CCC1CN(CC=CC1CCCCC1)C2
4212,B-9545,2-(2-phenyl-1.3-benzothiazol-5-yl)propanoic acid,XCGOOGLJHMKVRE-UHFFFAOYSA-N,OC(=O)C(C1CCC2C(C1)NC(S2)C1CCCCC1)C,052321-65-0,-4.10401069,CC(C(=O)O)C1CCC2SC(C3CCCCC3)NC2C1
4213,B-9547,1-(3-dimethylaminopropyl)-1-(4-fluorophenyl)-3H-2-benzofuran-5-carbonitrile,WSEQXVZVJXJVFP-UHFFFAOYSA-N,N#CC1CCC2C(C1)COC2(CCCN(C)C)C1CCC(CC1)F,059729-33-8,-4.018458771,CN(C)CCCC1(C2CCC(F)CC2)OCC2CC(C#N)CCC21
4214,B-9548,4-chloro-N-(3-methylpyridin-2-yl)benzamide,WFZSQGXGYLPWPC-UHFFFAOYSA-N,ClC1CCC(CC1)C(=O)NC1NCCCC1C,036845-02-0,-3.305798756,CC1CCCNC1NC(=O)C1CCC(Cl)CC1
4215,B-9549,6-chloroacridin-3-amine,OCESZSGMAAGZGO-UHFFFAOYSA-N,NC1CCC2C(C1)NC1C(C2)CCC(C1)Cl,040505-21-3,-4.580351812,NC1CCC2CC3CCC(Cl)CC3NC2C1
4216,B-9550,4-chloro-N-methyl-5-methylsulfanyl-6-piperazin-1-ylpyrimidin-2-amine,ILNSRQWEUTXPPQ-UHFFFAOYSA-N,CSC1C(Cl)NC(NC1N1CCNCC1)NC,055921-71-6,-1.233286479,CNC1NC(Cl)C(SC)C(N2CCNCC2)N1
4217,B-9553,1-(4-aminophenyl)heptan-1-one,RPQVIDVZOLKLQP-UHFFFAOYSA-N,CCCCCCC(=O)C1CCC(CC1)N,053033-83-3,-4.871481962,CCCCCCC(=O)C1CCC(N)CC1
4218,B-9555,1-nitro-4-(thiocyanatomethyl)benzene,NUMYTLIHYKESKM-UHFFFAOYSA-N,N#CSCC1CCC(CC1)[N+](=O)[O-],013287-49-5,-2.930332246,N#CSCC1CCC([N+](=O)[O-])CC1
4219,B-9556,1-(4-aminophenyl)octan-1-one,IMQPGJKTCYTPEI-UHFFFAOYSA-N,CCCCCCCC(=O)C1CCC(CC1)N,063884-78-6,-3.962696177,CCCCCCCC(=O)C1CCC(N)CC1
4220,B-9557,3-(4-chlorophenoxy)-2-methylpropane-1.2-diol,RJMZBTNNGWVNEW-UHFFFAOYSA-N,OCC(COC1CCC(CC1)Cl)(O)C,063834-70-8,-2.110471462,CC(O)(CO)COC1CCC(Cl)CC1
4221,B-9559,2-methyl-2-[4-(1.2.3.4-tetrahydronaphthalen-1-yl)phenoxy]propanoic acid,XJGBDJOMWKAZJS-UHFFFAOYSA-N,OC(=O)C(OC1CCC(CC1)C1CCCC2C1CCCC2)(C)C,003771-19-5,-5.579689876,CC(C)(OC1CCC(C2CCCC3CCCCC32)CC1)C(=O)O
4222,B-9560,2-amino-1.1.2-tri(phenyl)ethanol,ZQNFUXDRYQQYAQ-UHFFFAOYSA-N,NC(C(C1CCCCC1)(C1CCCCC1)O)C1CCCCC1,060539-17-5,-3.143402161,NC(C1CCCCC1)C(O)(C1CCCCC1)C1CCCCC1
4223,B-9561,3-(3-propylphenoxy)propane-1.2-diol,HEXPBLMJYQVQNU-UHFFFAOYSA-N,CCCC1CCCC(C1)OCC(CO)O,063991-77-5,-2.775008785,CCCC1CCCC(OCC(O)CO)C1
4224,B-9562,1-[4.5-di(phenyl)-1.3-oxazol-2-yl]piperazine,ZZMAMUSXLOFMFS-UHFFFAOYSA-N,N1CCN(CC1)C1NC(C(O1)C1CCCCC1)C1CCCCC1,020503-87-1,-3.758930395,C1CCC(C2NC(N3CCNCC3)OC2C2CCCCC2)CC1
4225,B-9563,[2-(hydroxymethyl)-2-methylpentyl] N-methyl-N-(1-phenylpropan-2-yl)carbamate,KRSJNPQCDCZRDP-UHFFFAOYSA-N,CCCC(COC(=O)N(C(CC1CCCCC1)C)C)(CO)C,025384-40-1,-0.326383879,CCCC(C)(CO)COC(=O)N(C)C(C)CC1CCCCC1
4226,B-9564,4-(3-methylbut-2-enyl)-1.2-di(phenyl)pyrazolidine-3.5-dione,RBBWCVQDXDFISW-UHFFFAOYSA-N,CC(=CCC1C(=O)N(N(C1=O)C1CCCCC1)C1CCCCC1)C,030748-29-9,-5.224193776,CC(C)=CCC1C(=O)N(C2CCCCC2)N(C2CCCCC2)C1=O
4227,B-9566,3-chloro-2-(4-chloro-2-methylphenyl)oxirane-2-carboxamide,WMYXMCBISNXBSE-UHFFFAOYSA-N,ClC1CCC(C(C1)C)C1(OC1Cl)C(=O)N,023474-41-1,-3.05865023,CC1CC(Cl)CCC1C1(C(N)=O)OC1Cl
4228,B-9567,2-(4-fluorophenyl)indene-1.3-dione,NASXCEITKQITLD-UHFFFAOYSA-N,O=C1C(C2CCC(CC2)F)C(=O)C2C1CCCC2,000957-56-2,-3.830159708,O=C1C2CCCCC2C(=O)C1C1CCC(F)CC1
4229,B-9568,5-ethyl-1-methyl-5-phenylimidazolidine-2.4-dione,NEGMMKYAVYNLCG-UHFFFAOYSA-N,CCC1(C(=O)NC(=O)N1C)C1CCCCC1,005696-06-0,-6.282061339,CCC1(C2CCCCC2)C(=O)NC(=O)N1C
4230,B-9569,1-[8-[(E)-3-phenylprop-2-enyl]-3.8-diazabicyclo[3.2.1]octan-3-yl]propan-1-one,PBAOPWLRQKRVIH-RMKNXTFCSA-N,CCC(=O)N1CC2CCC(C1)N2C/C=C/C1CCCCC1,001798-69-2,-3.65597456,CCC(=O)N1CC2CCC(C1)N2CC=CC1CCCCC1
4231,B-9570,[(2R)-2.5.7.8-tetramethyl-2-[(4R.8R)-4.8.12-trimethyltridecyl]chroman-6-yl] pyridine-3-carboxylate,MSCCTZZBYHQMQJ-AZAGJHQNSA-N,C[C@@H](CCC[C@]1(C)CCC2C(O1)C(C)C(C(C2C)OC(=O)C1CCCNC1)C)CCC[C@@H](CCCC(C)C)C,043119-47-7,-13.79856311,CC(C)CCCC(C)CCCC(C)CCCC1(C)CCC2C(C)C(OC(=O)C3CCCNC3)C(C)C(C)C2O1
4232,B-9571,2-[2-[3-(trifluoromethyl)phenyl]-1.3-benzoxazol-5-yl]propanoic acid,IWQDAJHWXYWODB-UHFFFAOYSA-N,OC(=O)C(C1CCC2C(C1)NC(O2)C1CCCC(C1)C(F)(F)F)C,051234-70-9,-4.921184198,CC(C(=O)O)C1CCC2OC(C3CCCC(C(F)(F)F)C3)NC2C1
4233,B-9572,(1-propan-2-ylpiperidin-4-yl) N-(2-chloro-6-methylphenyl)carbamate,ZXEPICRUPDEDET-UHFFFAOYSA-N,O=C(NC1C(C)CCCC1Cl)OC1CCN(CC1)C(C)C,033531-31-6,-4.626224398,CC1CCCC(Cl)C1NC(=O)OC1CCN(C(C)C)CC1
4234,B-9573,3-bromo-2-(2.4-dichlorophenyl)oxirane-2-carboxamide,VCQVXLBFBWVZNI-UHFFFAOYSA-N,ClC1CCC(C(C1)Cl)C1(OC1Br)C(=O)N,023474-39-7,-3.690609669,NC(=O)C1(C2CCC(Cl)CC2Cl)OC1Br
4235,B-9574,2-butanoyloxybenzoic acid,WYPOHFPDZTUCMQ-UHFFFAOYSA-N,CCCC(=O)OC1CCCCC1C(=O)O,071974-02-2,-2.598348538,CCCC(=O)OC1CCCCC1C(=O)O
4236,B-9575,3-(4-methylphenyl)sulfanylpropane-1.2-diol,VXZROHSBOPRPGT-UHFFFAOYSA-N,OCC(CSC1CCC(CC1)C)O,063991-89-9,-1.950925936,CC1CCC(SCC(O)CO)CC1
4237,B-9577,1-[3-[(E)-3-(3-chlorophenyl)prop-2-enyl]-3.8-diazabicyclo[3.2.1]octan-8-yl]propan-1-one,OCUFBKUHLIPEEP-GQCTYLIASA-N,CCC(=O)N1C2CCC1CN(C2)C/C=C/C1CCCC(C1)Cl,059038-09-4,-4.458256632,CCC(=O)N1C2CCC1CN(CC=CC1CCCC(Cl)C1)C2
4238,B-9578,N-(2-diethylaminoethyl)-2-(4-methoxyphenoxy)acetamide,HUNIPYLVUPMFCZ-UHFFFAOYSA-N,CCN(CCNC(=O)COC1CCC(CC1)OC)CC,001227-61-8,-2.776185374,CCN(CC)CCNC(=O)COC1CCC(OC)CC1
4239,B-9579,7-nitro-3.4-dihydro-1H-2.3-benzoxazine,ZOZABKCYUYXXRS-UHFFFAOYSA-N,[O-][N+](=O)C1CCC2C(C1)CONC2,021964-98-7,-2.214272896,O=[N+]([O-])C1CCC2CNOCC2C1
4240,B-9581,1-(4-methylphenyl)sulfonyl-2H-quinoline,NVYNAVAAFURMOU-UHFFFAOYSA-N,CC1CCC(CC1)S(=O)(=O)N1CC=CC2C1CCCC2,013268-54-7,-5.071579237,CC1CCC(S(=O)(=O)N2CC=CC3CCCCC32)CC1
4241,B-9582,5-diethylamino-3-ethyl-6-methyl-1-phenylpyrimidine-2.4-dione,NLGFLXKEBMNEDE-UHFFFAOYSA-N,CCN(C1C(C)N(C2CCCCC2)C(=O)N(C1=O)CC)CC,032150-52-0,-3.441702355,CCN1C(=O)C(N(CC)CC)C(C)N(C2CCCCC2)C1=O
4242,B-9584,N'-[4.5-di(phenyl)-1.3-oxazol-2-yl]-N.N-dimethylethane-1.2-diamine,ZHLAWCRBKNNTNO-UHFFFAOYSA-N,CN(CCNC1NC(C(O1)C1CCCCC1)C1CCCCC1)C,020503-83-7,-3.582984079,CN(C)CCNC1NC(C2CCCCC2)C(C2CCCCC2)O1
4243,B-9586,2-[2-(3-chlorophenyl)-1.3-benzoxazol-5-yl]propanoic acid,GEFRPGHOOMZHRC-UHFFFAOYSA-N,OC(=O)C(C1CCC2C(C1)NC(O2)C1CCCC(C1)Cl)C,051234-29-8,-4.404065788,CC(C(=O)O)C1CCC2OC(C3CCCC(Cl)C3)NC2C1
4244,B-9587,2-(4-butoxyphenyl)acetic acid,KLJMYYFCWBVKEE-UHFFFAOYSA-N,CCCCOC1CCC(CC1)CC(=O)O,004547-57-3,-2.871441577,CCCCOC1CCC(CC(=O)O)CC1
4245,B-9588,[1-(3-acetyloxyphenyl)-2-methylaminoethyl] acetate,SKRGPEBZTXSTCT-UHFFFAOYSA-N,CNCC(C1CCCC(C1)OC(=O)C)OC(=O)C,063991-22-0,-0.956116584,CNCC(OC(C)=O)C1CCCC(OC(C)=O)C1
4246,B-9589,4-Nitrophthalonitrile,NTZMSBAAHBICLE-UHFFFAOYSA-N,N#CC1CC(CCC1C#N)[N+](=O)[O-],031643-49-9,-1.892021863,N#CC1CCC([N+](=O)[O-])CC1C#N
4247,B-9590,3-(2-methylpiperidin-1-yl)propyl 3-hydroxybenzoate,JKEQJSXVKIBVBU-UHFFFAOYSA-N,OC1CCCC(C1)C(=O)OCCCN1CCCCC1C,063916-85-8,-3.019804234,CC1CCCCN1CCCOC(=O)C1CCCC(O)C1
4248,B-9592,2-[4-[4-[4-(2-diethylaminoethoxy)phenyl]hexan-3-yl]phenoxy]-N.N-diethylethanamine,UBDWKOZBPSKHMO-UHFFFAOYSA-N,CCC(C(C1CCC(CC1)OCCN(CC)CC)CC)C1CCC(CC1)OCCN(CC)CC,002691-45-4,-10.25095218,CCC(C1CCC(OCCN(CC)CC)CC1)C(CC)C1CCC(OCCN(CC)CC)CC1
4249,B-9593,1H-Indazol-6-amine,KEJFADGISRFLFO-UHFFFAOYSA-N,NC1CCC2C(C1)[NH]NC2,006967-12-0,-0.728154903,NC1CCC2CNNC2C1
4250,B-9594,1-(2-methylphenyl)-3-(1.3-oxazol-2-yl)urea,ISVQQJRVLCFYMV-UHFFFAOYSA-N,O=C(NC1CCCCC1C)NC1NCCO1,035629-52-8,-2.796586329,CC1CCCCC1NC(=O)NC1NCCO1
4251,B-9595,3-methyl-2-phenyl-2-(2-piperidin-1-ylethyl)pentanamide,KEZAHVUYFHPESR-UHFFFAOYSA-N,CCC(C(C1CCCCC1)(C(=O)N)CCN1CCCCC1)C,002977-23-3,-4.715002279,CCC(C)C(CCN1CCCCC1)(C(N)=O)C1CCCCC1
4252,B-9596,2-[4-(6-chloro-2-methylamino-5-methylsulfanylpyrimidin-4-yl)piperazin-1-yl]ethanol,RGXCCTUBFMDKJO-UHFFFAOYSA-N,OCCN1CCN(CC1)C1NC(NC)NC(C1SC)Cl,055477-27-5,-0.90341258,CNC1NC(Cl)C(SC)C(N2CCN(CCO)CC2)N1
4253,B-9597,2-[2-(4-tert-butylphenyl)-1.3-benzoxazol-5-yl]propanoic acid,TXNPKAZVKAHXGK-UHFFFAOYSA-N,OC(=O)C(C1CCC2C(C1)NC(O2)C1CCC(CC1)C(C)(C)C)C,054785-40-9,-5.642261784,CC(C(=O)O)C1CCC2OC(C3CCC(C(C)(C)C)CC3)NC2C1
4254,B-9598,1-[2-(4-chlorophenyl)ethyl]-6.7-dimethoxy-2-(3-methylbut-2-enyl)-3.4-dihydro-1H-isoquinoline,GJFGPQLNCBQNPS-UHFFFAOYSA-N,COC1CC2C(CC1OC)CCN(C2CCC1CCC(CC1)Cl)CC=C(C)C,063937-77-9,-6.804055843,COC1CC2CCN(CC=C(C)C)C(CCC3CCC(Cl)CC3)C2CC1OC
4255,B-9599,(5-nitrofuran-2-yl)methyl propanoate,PRGGTHPPVOPHHG-UHFFFAOYSA-N,[O-][N+](=O)C1CCC(O1)COC(=O)CC,025294-71-7,-2.546390048,CCC(=O)OCC1CCC([N+](=O)[O-])O1
4256,B-9601,(6aS)-1.10-dimethoxy-6-methyl-5.6.6a.7-tetrahydro-4H-dibenzo[de.g]quinoline-2.9-diol,LZJRNLRASBVRRX-ZDUSSCGKSA-N,COC1CC2C(CC1O)C[C@H]1C3C2C(OC)C(O)CC3CCN1C,000476-70-0,-3.100747456,COC1CC2C(CC1O)CC1C3C(CCN1C)CC(O)C(OC)C23
4257,B-9602,3H-imidazol-4-ylmethanol,QDYTUZCWBJRHKK-UHFFFAOYSA-N,OCC1CNC[NH]1,000822-55-9,0.815166874,OCC1CNCN1
4258,B-9603,N.N-diethyl-2-prop-2-enoxybenzamide,UACSYZPPUXXDTL-UHFFFAOYSA-N,C=CCOC1CCCCC1C(=O)N(CC)CC,063887-51-4,-3.155747611,C=CCOC1CCCCC1C(=O)N(CC)CC
4259,B-9604,N-[4.5-di(phenyl)-1.3-oxazol-2-yl]acetamide,GWTVMUKCRYINJA-UHFFFAOYSA-N,CC(=O)NC1NC(C(O1)C1CCCCC1)C1CCCCC1,035629-39-1,-4.189257867,CC(=O)NC1NC(C2CCCCC2)C(C2CCCCC2)O1
4260,B-9606,1-(4-Hydroxy-3.5-dimethoxyphenyl)ethanone,OJOBTAOGJIWAGB-UHFFFAOYSA-N,COC1CC(CC(C1O)OC)C(=O)C,002478-38-8,-1.352186945,COC1CC(C(C)=O)CC(OC)C1O
4261,B-9607,2-[2-(4-chlorophenyl)-1.3-benzothiazol-5-yl]acetic acid,FJGLVTYWNCZPBL-UHFFFAOYSA-N,OC(=O)CC1CCC2C(C1)NC(S2)C1CCC(CC1)Cl,036782-49-7,-4.449106843,O=C(O)CC1CCC2SC(C3CCC(Cl)CC3)NC2C1
4262,B-9609,1-[2-(4-chlorophenyl)ethyl]-6.7-dimethoxy-2-methyl-3.4-dihydro-1H-isoquinoline,YBCPYHQFUMNOJG-UHFFFAOYSA-N,COC1CC2C(CC1OC)CCN(C2CCC1CCC(CC1)Cl)C,002154-02-1,-5.011795015,COC1CC2CCN(C)C(CCC3CCC(Cl)CC3)C2CC1OC
4263,B-9610,1-(2-diethylaminoethylamino)-4-(hydroxymethyl)thioxanthen-9-one,MFZWMTSUNYWVBU-UHFFFAOYSA-N,CCN(CCNC1CCC(C2C1C(=O)C1C(S2)CCCC1)CO)CC,003105-97-3,-4.689193394,CCN(CC)CCNC1CCC(CO)C2SC3CCCCC3C(=O)C12
4264,B-9611,(1S.9R.10S)-17-(cyclopropylmethyl)-17-azatetracyclo[7.5.3.01.10.02.7]heptadeca-2(7).3.5-triene-4.10-diol,STBZIDOIKQNFCQ-HSALFYBXSA-N,OC1CCC2C(C1)[C@]13CCCC[C@]3([C@@H](C2)N(CC1)CC1CC1)O,042281-59-4,-2.623999545,OC1CCC2CC3N(CC4CC4)CCC4(CCCCC34O)C2C1
4265,B-9613,5-methoxy-3H-1.3-benzoxazol-2-one,YOLHKYWNQMSMDN-UHFFFAOYSA-N,COC1CCC2C(C1)[NH]C(=O)O2,040925-63-1,-1.282870141,COC1CCC2OC(=O)NC2C1
4266,B-9615,[1-acetyloxy-3-(2-methylphenoxy)propan-2-yl] acetate,CVMSKRHCTWCITE-UHFFFAOYSA-N,CC(=O)OC(COC1CCCCC1C)COC(=O)C,063991-86-6,-3.372281307,CC(=O)OCC(COC1CCCCC1C)OC(C)=O
4267,B-9616,1.1-dioxo-2-prop-2-enyl-4H-benzo[e]thiazin-3-one,UQTCYVCSUDXQQN-UHFFFAOYSA-N,C=CCN1C(=O)CC2C(S1(=O)=O)CCCC2,031848-18-7,-2.053029008,C=CCN1C(=O)CC2CCCCC2S1(=O)=O
4268,B-9618,2-[[4.5-di(phenyl)-1.3-oxazol-2-yl]-methylamino]ethanol,KRSJARZIUCHGQS-UHFFFAOYSA-N,OCCN(C1NC(C(O1)C1CCCCC1)C1CCCCC1)C,020503-78-0,-4.389688696,CN(CCO)C1NC(C2CCCCC2)C(C2CCCCC2)O1
4269,B-9619,6-methyl-2H-1.2.4-triazine-3.5-dione,XZWMZFQOHTWGQE-UHFFFAOYSA-N,CC1N[NH]C(=O)[NH]C1=O,016075-91-5,-1.306265318,CC1NNC(=O)NC1=O
4270,B-9622,2-diethylaminoethyl 2-naphthalen-1-ylpent-4-enoate,VCGAKFSCYYVKIR-UHFFFAOYSA-N,C=CCC(C1CCCC2C1CCCC2)C(=O)OCCN(CC)CC,003216-54-4,-5.005981912,C=CCC(C(=O)OCCN(CC)CC)C1CCCC2CCCCC21
4271,B-9623,2.5-Dibromobenzoic acid,SQQKOTVDGCJJKI-UHFFFAOYSA-N,BrC1CCC(C(C1)C(=O)O)Br,000610-71-9,-3.681730258,O=C(O)C1CC(Br)CCC1Br
4272,B-9624,5-bromo-2-[2-(dipropylamino)ethoxy]-3-phenylbenzamide,MGVXLAPXABNABN-UHFFFAOYSA-N,CCCN(CCOC1C(CC(CC1C1CCCCC1)Br)C(=O)N)CCC,063886-99-7,-6.059109035,CCCN(CCC)CCOC1C(C(N)=O)CC(Br)CC1C1CCCCC1
4273,B-9625,7-chloro-1.4-dihydro-2.3-benzoxazine-3-carboxamide,OXMIHLGHUYDMCT-UHFFFAOYSA-N,ClC1CCC2C(C1)CON(C2)C(=O)N,021038-17-5,-2.163277811,NC(=O)N1CC2CCC(Cl)CC2CO1
4274,B-9626,5-chloro-6-methoxy-1.3-benzoxazol-2-amine,GOYJQKVVEOIVCJ-UHFFFAOYSA-N,COC1CC2OC(NC2CC1Cl)N,002139-00-6,-2.481088525,COC1CC2OC(N)NC2CC1Cl
4275,B-9627,8-chloro-10-(3-methylaminopropyl)phenothiazin-3-ol,SQSNGPIVSCOKRR-UHFFFAOYSA-N,CNCCCN1C2CC(Cl)CCC2SC2C1CCC(C2)O,003546-08-5,-5.678912453,CNCCCN1C2CCC(O)CC2SC2CCC(Cl)CC21
4276,B-9628,3-(4-ethylphenoxy)propane-1.2-diol,WUWWFJGGMGKQML-UHFFFAOYSA-N,OCC(COC1CCC(CC1)CC)O,054581-92-9,-2.251408128,CCC1CCC(OCC(O)CO)CC1
4277,B-9629,3-Amino-2.4.6-triiodobenzoic acid,QMQFFHSJUJDRPG-UHFFFAOYSA-N,OC(=O)C1C(I)CC(C(C1I)N)I,003119-15-1,-5.820681744,NC1C(I)CC(I)C(C(=O)O)C1I
4278,B-9630,2-Hydroxy-2-phenylbutanamide,KHJLUGZFVDFOKZ-UHFFFAOYSA-N,CCC(C1CCCCC1)(C(=O)N)O,017698-12-3,-1.533555739,CCC(O)(C(N)=O)C1CCCCC1
4279,B-9631,1-(2-methoxyethylamino)-3-methyl-3-phenoxybutan-2-ol,XKBBLYSGQCPRSO-UHFFFAOYSA-N,COCCNCC(C(OC1CCCCC1)(C)C)O,007584-78-3,-0.987066687,COCCNCC(O)C(C)(C)OC1CCCCC1
4280,B-9632,5-methyl-2-naphthalen-1-yl-2-(2-pyrrolidin-1-ylethyl)hex-4-enamide,HOCKJJPTFSEXEJ-UHFFFAOYSA-N,CC(=CCC(C1CCCC2C1CCCC2)(C(=O)N)CCN1CCCC1)C,063704-66-5,-5.995692207,CC(C)=CCC(CCN1CCCC1)(C(N)=O)C1CCCC2CCCCC21
4281,B-9634,3-(1.3-dithiolan-2-yl)-1H-indole,WRUCRCKOLBABNZ-UHFFFAOYSA-N,C1CSC(S1)C1C[NH]C2C1CCCC2,036104-60-6,-3.703577947,C1CCC2C(C1)NCC2C1SCCS1
4282,B-9635,3-(1-azabicyclo[2.2.2]octan-8-ylamino)-1.2-di(phenyl)propan-1-one,DDLAHAHXSPIZQL-UHFFFAOYSA-N,O=C(C(C1CCCCC1)CNC1CN2CCC1CC2)C1CCCCC1,031842-23-6,-3.698921976,O=C(C1CCCCC1)C(CNC1CN2CCC1CC2)C1CCCCC1
4283,B-9636,ethyl 2-[2-(4-methoxyphenyl)-1.3-benzothiazol-5-yl]acetate,RGIKAFNNDOGWCB-UHFFFAOYSA-N,CCOC(=O)CC1CCC2C(C1)NC(S2)C1CCC(CC1)OC,049702-17-2,-5.510754662,CCOC(=O)CC1CCC2SC(C3CCC(OC)CC3)NC2C1
4284,B-9637,1-(3-methylphenoxy)-3-(propan-2-ylamino)propan-2-ol,NXQMNKUGGYNLBY-UHFFFAOYSA-N,OC(COC1CCCC(C1)C)CNC(C)C,002933-94-0,-1.49219093,CC1CCCC(OCC(O)CNC(C)C)C1
4285,B-9638,N.N-diethyl-5-methyl-1-phenyltriazole-4-carboxamide,PBPCBTOCQIYTPL-UHFFFAOYSA-N,CCN(C(=O)C1NNN(C1C)C1CCCCC1)CC,063979-27-1,-2.865623791,CCN(CC)C(=O)C1NNN(C2CCCCC2)C1C
4286,B-9639,1-(4-chlorophenyl)-5-dimethylamino-3.6-dimethylpyrimidine-2.4-dione,YPGSWQHGZLTTGJ-UHFFFAOYSA-N,CN(C1C(C)N(C2CCC(CC2)Cl)C(=O)N(C1=O)C)C,032150-68-8,-2.677694204,CC1C(N(C)C)C(=O)N(C)C(=O)N1C1CCC(Cl)CC1
4287,B-9640,2.4-dimethylacridin-9-amine,CVBGTAJIXYROKD-UHFFFAOYSA-N,CC1CC(C)C2C(C1)C(N)C1C(N2)CCCC1,040504-92-5,-4.9171696,CC1CC(C)C2NC3CCCCC3C(N)C2C1
4288,B-9642,ethyl 4-phenyl-1-[2-(phenylmethoxy)ethyl]piperidine-4-carboxylate,UVTBZAWTRVBTMK-UHFFFAOYSA-N,CCOC(=O)C1(CCN(CC1)CCOCC1CCCCC1)C1CCCCC1,003691-78-9,-4.681015586,CCOC(=O)C1(C2CCCCC2)CCN(CCOCC2CCCCC2)CC1
4289,B-9643,4-methyl-1H-indole-2.3-dione,KDICASSDSSYKMK-UHFFFAOYSA-N,O=C1NC2C(C1=O)C(C)CCC2,001128-44-5,-1.23090728,CC1CCCC2NC(=O)C(=O)C12
4290,B-9644,3.6-dimethyl-1-phenyl-5-(propan-2-ylamino)pyrimidine-2.4-dione,UAUQNCHZCQYABX-UHFFFAOYSA-N,CC(NC1C(C)N(C2CCCCC2)C(=O)N(C1=O)C)C,032150-64-4,-2.574565455,CC(C)NC1C(=O)N(C)C(=O)N(C2CCCCC2)C1C
4291,B-9645,4-[4-(4-fluorobenzoyl)piperidin-1-yl]-1-(4-fluorophenyl)butan-1-one,WCIBOXFOUGQLFC-UHFFFAOYSA-N,FC1CCC(CC1)C(=O)CCCN1CCC(CC1)C(=O)C1CCC(CC1)F,024677-86-9,-4.650273628,O=C(CCCN1CCC(C(=O)C2CCC(F)CC2)CC1)C1CCC(F)CC1
4292,B-9647,4-bromo-N-propylbenzenesulfonamide,CZRKEJQELXKHAQ-UHFFFAOYSA-N,CCCNS(=O)(=O)C1CCC(CC1)Br,003476-19-5,-3.541754144,CCCNS(=O)(=O)C1CCC(Br)CC1
4293,B-9648,3.7-dimethyl-1-(3-methylbutyl)purine-2.6-dione,VLJKEQVJDMCCRE-UHFFFAOYSA-N,CC(CCN1C(=O)C2N(C)CNC2N(C1=O)C)C,001024-65-3,-2.774182224,CC(C)CCN1C(=O)C2C(NCN2C)N(C)C1=O
4294,B-9649,2-(2-hydroxyethyl-(phenylmethyl)amino)ethanol,MIZIOHLLYXVEHJ-UHFFFAOYSA-N,OCCN(CC1CCCCC1)CCO,000101-32-6,0.207692843,OCCN(CCO)CC1CCCCC1
4295,B-9650,2-(4-ethoxyphenyl)-1-(8-methyl-3.8-diazabicyclo[3.2.1]octan-3-yl)ethanone,RBNJBKJYVAQZTJ-UHFFFAOYSA-N,CCOC1CCC(CC1)CC(=O)N1CC2CCC(C1)N2C,057269-26-8,-3.098253852,CCOC1CCC(CC(=O)N2CC3CCC(C2)N3C)CC1
4296,B-9651,4-methyl-N-pyridin-4-ylbenzamide,GCFLVEVTCIKTNM-UHFFFAOYSA-N,CC1CCC(CC1)C(=O)NC1CCNCC1,014547-74-1,-2.986407676,CC1CCC(C(=O)NC2CCNCC2)CC1
4297,B-9652,1-amino-2-(4-chlorophenyl)sulfanylpropan-2-ol,LMEJPVLOENSTRV-UHFFFAOYSA-N,NCC(SC1CCC(CC1)Cl)(O)C,063744-52-5,-0.815436139,CC(O)(CN)SC1CCC(Cl)CC1
4298,B-9653,N-(4-prop-2-enoxyphenyl)acetamide,UVGQOPZEALYXKP-UHFFFAOYSA-N,C=CCOC1CCC(CC1)NC(=O)C,006622-73-7,-2.326831234,C=CCOC1CCC(NC(C)=O)CC1
4299,B-9654,1-[3-[(E)-2-methyl-3-phenylprop-2-enyl]-3.8-diazabicyclo[3.2.1]octan-8-yl]propan-1-one,RQUSKNJBURBAJD-RVDMUPIBSA-N,CCC(=O)N1C2CCC1CN(C2)C/C(=C/C1CCCCC1)/C,002016-81-1,-4.224422462,CCC(=O)N1C2CCC1CN(CC(C)=CC1CCCCC1)C2
4300,B-9655,4-Chloro-3.5-dinitrobenzonitrile,SCGDEDHSPCXGEC-UHFFFAOYSA-N,N#CC1CC([N+](=O)[O-])C(C(C1)[N+](=O)[O-])Cl,001930-72-9,-3.069294195,N#CC1CC([N+](=O)[O-])C(Cl)C([N+](=O)[O-])C1
4301,B-9656,1-[4-(3-phenylprop-2-enyl)piperazin-1-yl]propan-1-one,PXDGUZYTZGUSLZ-UHFFFAOYSA-N,CCC(=O)N1CCN(CC1)CC=CC1CCCCC1,017719-88-9,-2.848752578,CCC(=O)N1CCN(CC=CC2CCCCC2)CC1
4302,B-9658,2-diethylaminoethyl 3-furan-2-yl-2-naphthalen-1-ylpropanoate,QNHULNOOWAGJSS-UHFFFAOYSA-N,CCN(CCOC(=O)C(C1CCCC2C1CCCC2)CC1CCCO1)CC,003216-74-8,-5.494669425,CCN(CC)CCOC(=O)C(CC1CCCO1)C1CCCC2CCCCC21
4303,B-9659,(phenyl-propan-2-ylphosphoryl)benzene,CLPTUIWEBUOUCQ-UHFFFAOYSA-N,CC(P(=O)(C1CCCCC1)C1CCCCC1)C,002959-75-3,-3.362571379,CC(C)P(=O)(C1CCCCC1)C1CCCCC1
4304,B-9660,2-butylamino-1-(2.2.6.6-tetramethyl-4-phenyl-3H-pyridin-1-yl)ethanone,SBEQUPBZKBGVHE-UHFFFAOYSA-N,CCCCNCC(=O)N1C(C)(C)CC(=CC1(C)C)C1CCCCC1,053725-53-4,-5.895359091,CCCCNCC(=O)N1C(C)(C)C=C(C2CCCCC2)CC1(C)C
4305,B-9661,N-ethyl-2-hydroxybenzamide,UHDKXFCUGVGVDP-UHFFFAOYSA-N,CCNC(=O)C1CCCCC1O,004611-42-1,-1.527792931,CCNC(=O)C1CCCCC1O
4306,B-9662,2.2-dioxo-3-propan-2-yl-1H-benzo[d]thiazin-4-one,JIQOPFIEDZPLQT-UHFFFAOYSA-N,CC(N1C(=O)C2CCCCC2CS1(=O)=O)C,031846-46-5,-2.510866373,CC(C)N1C(=O)C2CCCCC2CS1(=O)=O
4307,B-9663,3-(2-aminoethyl)-1-benzothiophen-5-ol,ONTWCYDBNXHETF-UHFFFAOYSA-N,NCCC1CSC2C1CC(O)CC2,013012-93-6,-0.796192507,NCCC1CSC2CCC(O)CC12
4308,B-9664,3-phenyl-2-prop-2-enoxybenzamide,FFYZLGACXSITOH-UHFFFAOYSA-N,C=CCOC1C(CCCC1C(=O)N)C1CCCCC1,063887-18-3,-3.519408118,C=CCOC1C(C(N)=O)CCCC1C1CCCCC1
4309,B-9666,2-morpholin-4-ylethyl 2-methyl-2-(phenoxy)propanoate,GMISKEUWHIRDNK-UHFFFAOYSA-N,O=C(C(OC1CCCCC1)(C)C)OCCN1CCOCC1,003615-74-5,-1.865345362,CC(C)(OC1CCCCC1)C(=O)OCCN1CCOCC1
4310,B-9669,spiro[imidazolidine-5.2&apos-tricyclo[9.4.0.03.8]pentadeca-1(15).3.5.7.11.13-hexaene]-4-one,YGSCSZBZKJMUHC-UHFFFAOYSA-N,O=C1NCNC21C1CCCCC1CCC1C2CCCC1,064036-59-5,-4.272924057,O=C1NCNC12C1CCCCC1CCC1CCCCC12
4311,B-9671,N-[4-chloro-5-methyl-6-(4-methylpiperazin-1-yl)pyrimidin-2-yl]acetamide,PPXIIWYEVFSUCR-UHFFFAOYSA-N,CN1CCN(CC1)C1NC(NC(=O)C)NC(C1C)Cl,055477-34-4,-1.945095319,CC(=O)NC1NC(Cl)C(C)C(N2CCN(C)CC2)N1
4312,B-9672,1-[2-[2-[2-(2-methoxyphenoxy)ethoxy]ethoxy]ethyl]piperidine,PPVFOZYARYOARE-UHFFFAOYSA-N,COC1CCCCC1OCCOCCOCCN1CCCCC1,000852-42-6,-1.545996515,COC1CCCCC1OCCOCCOCCN1CCCCC1
4313,B-9673,1H-Indazol-7-amine,OTFFCAGPSWJBDK-UHFFFAOYSA-N,NC1CCCC2C1[NH]NC2,021443-96-9,-1.127842578,NC1CCCC2CNNC12
4314,B-9674,2-Amino-5-chlorobenzamide,DNRVZOZGQHHDAT-UHFFFAOYSA-N,ClC1CCC(C(C1)C(=O)N)N,005202-85-7,-1.372230252,NC(=O)C1CC(Cl)CCC1N
4315,B-9675,(1-methylpyrrolidin-3-yl) N-(2-chloro-6-methylphenyl)carbamate,NIQMFMMHMRRKLU-UHFFFAOYSA-N,CN1CCC(C1)OC(=O)NC1C(C)CCCC1Cl,033531-64-5,-3.123982559,CC1CCCC(Cl)C1NC(=O)OC1CCN(C)C1
4316,B-9676,1-phenyl-4-(2-phenylethylamino)pyrrolidin-2-one,NZXDMTPYTKPXCD-UHFFFAOYSA-N,O=C1CC(CN1C1CCCCC1)NCCC1CCCCC1,006212-97-1,-3.125513796,O=C1CC(NCCC2CCCCC2)CN1C1CCCCC1
4317,B-9677,N.N-Diethyl-4-hydroxy-3-methoxybenzamide,BQJODPIMMWWMFC-UHFFFAOYSA-N,CCN(C(=O)C1CCC(C(C1)OC)O)CC,000304-84-7,-1.665156964,CCN(CC)C(=O)C1CCC(O)C(OC)C1
4318,B-9678,1-[3-(2-phenylethyl)-3.8-diazabicyclo[3.2.1]octan-8-yl]propan-1-one,YBZJPJLESWJLTK-UHFFFAOYSA-N,CCC(=O)N1C2CCC1CN(C2)CCC1CCCCC1,063990-48-7,-3.142938277,CCC(=O)N1C2CCC1CN(CCC1CCCCC1)C2
4319,B-9679,1.3.3-tri(phenyl)propan-1-one,WYRBITQXPQGTBL-UHFFFAOYSA-N,O=C(C1CCCCC1)CC(C1CCCCC1)C1CCCCC1,000606-86-0,-5.55113769,O=C(CC(C1CCCCC1)C1CCCCC1)C1CCCCC1
4320,B-9680,(8R.9S.13S.14S.16R.17R)-3-cyclopentyloxy-13-methyl-6.7.8.9.11.12.14.15.16.17-decahydrocyclopenta[a]phenanthrene-16.17-diol,ODYKCPYPRCJXLY-PZORDLPLSA-N,O[C@@H]1C[C@@H]2[C@]([C@H]1O)(C)CC[C@H]1[C@H]2CCC2C1CCC(C2)OC1CCCC1,001169-79-5,-6.051830381,CC12CCC3C4CCC(OC5CCCC5)CC4CCC3C1CC(O)C2O