,C_ID,Name,InChIKey,SMILES,CAS,LogS,smiles_canon
5175,B-10768,4-cyclohexyl-6-phenylmorpholine-2.3-dione,YBXQUVYQOUFMOM-UHFFFAOYSA-N,O=C1OC(CN(C1=O)C1CCCCC1)C1CCCCC1,037154-90-8,-3.846740878,O=C1OC(C2CCCCC2)CN(C2CCCCC2)C1=O
5176,B-10769,2-methyl-2-naphthalen-1-yl-4-piperidin-1-ylbutanamide,FLHRAPZVGFZSQD-UHFFFAOYSA-N,NC(=O)C(C1CCCC2C1CCCC2)(CCN1CCCCC1)C,001505-98-2,-4.581888542,CC(CCN1CCCCC1)(C(N)=O)C1CCCC2CCCCC21
5177,B-10770,2-[2-[4-(trifluoromethyl)phenyl]-1.3-benzoxazol-5-yl]propanoic acid,CGOUFDAVNKYPMT-UHFFFAOYSA-N,OC(=O)C(C1CCC2C(C1)NC(O2)C1CCC(CC1)C(F)(F)F)C,051234-73-2,-4.921184198,CC(C(=O)O)C1CCC2OC(C3CCC(C(F)(F)F)CC3)NC2C1
5178,B-10772,2-(4-tert-butylphenyl)-N-hydroxyacetamide,TXCTURVQEPLVTE-UHFFFAOYSA-N,ONC(=O)CC1CCC(CC1)C(C)(C)C,003289-00-7,-2.703758856,CC(C)(C)C1CCC(CC(=O)NO)CC1
5179,B-10774,1-methoxy-4-[4-(2-sulfosulfanylethylamino)butyl]benzene,GVAQGXFHYGHMRN-UHFFFAOYSA-N,COC1CCC(CC1)CCCCNCCSS(=O)(=O)O,021208-80-0,-2.030164862,COC1CCC(CCCCNCCSS(=O)(=O)O)CC1
5180,B-10775,2-[2-(4-iodophenyl)-1.3-benzoxazol-5-yl]propanoic acid,RHILVRBEZGPKBY-UHFFFAOYSA-N,OC(=O)C(C1CCC2C(C1)NC(O2)C1CCC(CC1)I)C,051234-74-3,-5.515410161,CC(C(=O)O)C1CCC2OC(C3CCC(I)CC3)NC2C1
5181,B-10776,(E)-3-(2.4-dimethoxyphenyl)prop-2-enoic acid,YIKHDPHTFYWYJV-GQCTYLIASA-N,COC1CC(OC)CCC1/C=C/C(=O)O,006972-61-8,-2.232148011,COC1CCC(C=CC(=O)O)C(OC)C1
5182,B-10777,2-[1-methyl-5-(4-methylbenzoyl)pyrrol-2-yl]acetic acid,UPSPUYADGBWSHF-UHFFFAOYSA-N,OC(=O)CC1CCC(N1C)C(=O)C1CCC(CC1)C,1184998-16-0,-4.089993248,CC1CCC(C(=O)C2CCC(CC(=O)O)N2C)CC1
5183,B-10778,3-[1-[2-(4-hydroxyphenyl)ethyl]-3-propylpyrrolidin-3-yl]phenol,LRMYMYHAGWQOEO-UHFFFAOYSA-N,CCCC1(CCN(C1)CCC1CCC(CC1)O)C1CCCC(C1)O,027544-75-8,-4.060700509,CCCC1(C2CCCC(O)C2)CCN(CCC2CCC(O)CC2)C1
5184,B-10779,1-[4-[3-(2-diethylaminoethylamino)-2-hydroxypropoxy]phenyl]propan-1-one,YGBYMILEURDRKI-UHFFFAOYSA-N,CCN(CCNCC(COC1CCC(CC1)C(=O)CC)O)CC,063815-45-2,-1.708431689,CCC(=O)C1CCC(OCC(O)CNCCN(CC)CC)CC1
5185,B-10781,1-(7-nitro-1.4-dihydro-2.3-benzoxazin-3-yl)ethanone,DUTLJDUDHBSLFN-UHFFFAOYSA-N,CC(=O)N1OCC2C(C1)CCC(C2)[N+](=O)[O-],021038-10-8,-2.253322369,CC(=O)N1CC2CCC([N+](=O)[O-])CC2CO1
5186,B-10782,1-[(3.4-dichlorophenyl)methoxy]-6.6-dimethyl-1.3.5-triazine-2.4-diamine,XDTNOYLBDDCJSK-UHFFFAOYSA-N,NC1=NC(N(C(=N1)N)OCC1CCC(C(C1)Cl)Cl)(C)C,022242-55-3,-2.715325344,CC1(C)N=C(N)N=C(N)N1OCC1CCC(Cl)C(Cl)C1
5187,B-10783,(3R.4R.5R)-5-[(1R)-1.2-bis(phenylmethoxy)ethyl]-2-ethoxy-4-(phenylmethoxy)oxolan-3-ol,ULLNJSBQMBKOJH-VIVFLBMVSA-N,CCOC1O[C@@H]([C@@H]([C@H]1O)OCC1CCCCC1)[C@H](OCC1CCCCC1)COCC1CCCCC1,010310-32-4,-6.399380702,CCOC1OC(C(COCC2CCCCC2)OCC2CCCCC2)C(OCC2CCCCC2)C1O
5188,B-10784,3-chloro-2-(2-chloro-4-fluorophenyl)oxirane-2-carboxamide,JDNAJAXZNLKSTI-UHFFFAOYSA-N,FC1CCC(C(C1)Cl)C1(OC1Cl)C(=O)N,023474-40-0,-2.791645494,NC(=O)C1(C2CCC(F)CC2Cl)OC1Cl
5189,B-10785,2-(4-butylpiperazin-1-yl)-N-[(Z)-(5-nitrofuran-2-yl)methylideneamino]acetamide,CFPOQCPZKHPNPN-WJDWOHSUSA-N,CCCCN1CCN(CC1)CC(=O)N/N=C\C1CCC(O1)[N+](=O)[O-],024637-22-7,-2.67563934,CCCCN1CCN(CC(=O)NN=CC2CCC([N+](=O)[O-])O2)CC1
5190,B-10787,2-[2-(3.4-dichlorophenyl)-1.3-benzoxazol-5-yl]propanoic acid,IESVGUSNDICIGM-UHFFFAOYSA-N,OC(=O)C(C1CCC2C(C1)NC(O2)C1CCC(C(C1)Cl)Cl)C,051234-65-2,-5.206410084,CC(C(=O)O)C1CCC2OC(C3CCC(Cl)C(Cl)C3)NC2C1
5191,B-10788,6-amino-3-methyl-1-propylpyrimidine-2.4-dione,WPDWDWXAXRTNAQ-UHFFFAOYSA-N,CN1C(=O)N(CCC)C(CC1=O)N,053681-48-4,-1.610705204,CCCN1C(=O)N(C)C(=O)CC1N
5192,B-10790,4-(2.3-dihydroxypropoxy)benzaldehyde,QEZPUQMNWKYVDS-UHFFFAOYSA-N,OCC(COC1CCC(CC1)C=O)O,064049-49-6,-0.783500908,O=CC1CCC(OCC(O)CO)CC1
5193,B-10791,4-amino-N-(2.6-dimethylpyridin-3-yl)benzamide,LYQGEPVEGHFFJM-UHFFFAOYSA-N,NC1CCC(CC1)C(=O)NC1CCC(NC1C)C,036987-32-3,-2.400727934,CC1CCC(NC(=O)C2CCC(N)CC2)C(C)N1
5194,B-10792,5-phenyl-4.6.11-trioxa-1-aza-5-silabicyclo[3.3.3]undecane,IJOIPPSHQCEBDH-UHFFFAOYSA-N,C1CN2CCO[Si](O1)(OCC2)C1CCCCC1,002097-19-0,-0.040455485,C1CCC([Si]23OCCN(CCO2)CCO3)CC1
5195,B-10794,3-(2-dimethylaminoethoxy)propyl 4-aminobenzoate,OAIXNMHLYQAFPH-UHFFFAOYSA-N,CN(CCOCCCOC(=O)C1CCC(CC1)N)C,063917-77-1,-1.17746476,CN(C)CCOCCCOC(=O)C1CCC(N)CC1
5196,B-10795,(6S)-6-[2-(1.3-benzodioxol-5-yl)ethyl]-4-methoxy-5.6-dihydropyran-2-one,RSIWXFIBHXYNFM-NSHDSACASA-N,COC1=CC(=O)O[C@H](C1)CCC1CCC2C(C1)OCO2,019902-91-1,-2.676439022,COC1=CC(=O)OC(CCC2CCC3OCOC3C2)C1
5197,B-10797,N-(4-methylphenyl)-2-[methyl-(2-piperidin-1-ylacetyl)amino]benzamide,JOBYFSLGKZGUKV-UHFFFAOYSA-N,CC1CCC(CC1)NC(=O)C1CCCCC1N(C(=O)CN1CCCCC1)C,055707-74-9,-5.11415372,CC1CCC(NC(=O)C2CCCCC2N(C)C(=O)CN2CCCCC2)CC1
5198,B-10799,8-(2-phenylethyl)-1-oxa-3.8-diazaspiro[4.5]decan-2-one,FVNFBBAOMBJTST-UHFFFAOYSA-N,O=C1NCC2(O1)CCN(CC2)CCC1CCCCC1,005053-06-5,-2.034601449,O=C1NCC2(CCN(CCC3CCCCC3)CC2)O1
5199,B-10800,2-Diethylaminoethyl 4-amino-2-butoxybenzoate,ZLMQPGUWYWFPEG-UHFFFAOYSA-N,CCCCOC1CC(N)CCC1C(=O)OCCN(CC)CC,000119-29-9,-3.464659681,CCCCOC1CC(N)CCC1C(=O)OCCN(CC)CC
5200,B-10801,3.4.5-Trimethoxybenzamide,GGNMTJKRHHLJHH-UHFFFAOYSA-N,COC1CC(CC(C1OC)OC)C(=O)N,003086-62-2,-0.953661008,COC1CC(C(N)=O)CC(OC)C1OC
5201,B-10804,10H-acridin-3-one,AOGCEVPCIJMAPG-UHFFFAOYSA-N,O=C1CCC2C(C1)[NH]C1C(C2)CCCC1,007132-70-9,-3.579563392,O=C1CCC2CC3CCCCC3NC2C1
5202,B-10805,2-(3.4-dichlorophenyl)-3-methyl-1.1-dioxo-1.3-thiazinan-4-one,FTBWWORDOHNJDB-UHFFFAOYSA-N,O=C1CCS(=O)(=O)C(N1C)C1CCC(C(C1)Cl)Cl,005571-97-1,-1.778677221,CN1C(=O)CCS(=O)(=O)C1C1CCC(Cl)C(Cl)C1
5203,B-10806,1-(2-Iodoethyl)-2-methyl-4-nitroimidazole,WIQJRGFUJZSBKC-UHFFFAOYSA-N,[O-][N+](=O)C1CN(C(N1)C)CCI,016156-96-0,-3.536034937,CC1NC([N+](=O)[O-])CN1CCI
5204,B-10810,[1-(2-methylphenoxy)-3-propan-2-yloxypropan-2-yl] carbamate,DZJTUNPUCLMFDQ-UHFFFAOYSA-N,NC(=O)OC(COC1CCCCC1C)COC(C)C,064059-09-2,-3.139237862,CC(C)OCC(COC1CCCCC1C)OC(N)=O
5205,B-10812,[4-[bis(2-chloroethyl)amino]phenyl] 4-methylbenzoate,ZBGALQUZONQCFB-UHFFFAOYSA-N,ClCCN(C1CCC(CC1)OC(=O)C1CCC(CC1)C)CCCl,022953-51-1,-6.261299857,CC1CCC(C(=O)OC2CCC(N(CCCl)CCCl)CC2)CC1
5206,B-10813,2-(4-methyl-2-nitroimidazol-1-yl)ethanol,ZLAUKQRQFQGZMX-UHFFFAOYSA-N,[O-][N+](=O)C1NC(CN1CCO)C,023585-80-0,-0.837192807,CC1CN(CCO)C([N+](=O)[O-])N1
5207,B-10814,3-(4-aminophenyl)-3-ethylpiperidine-2.6-dione,ROBVIMPUHSLWNV-UHFFFAOYSA-N,CCC1(CCC(=O)NC1=O)C1CCC(CC1)N,000125-84-8,-1.969818079,CCC1(C2CCC(N)CC2)CCC(=O)NC1=O
5208,B-10815,(4-chlorophenyl)-[3.5-dimethoxy-4-(2-morpholin-4-ylethoxy)phenyl]methanone,KVCJCEKJKGLBOK-UHFFFAOYSA-N,COC1CC(CC(C1OCCN1CCOCC1)OC)C(=O)C1CCC(CC1)Cl,031848-01-8,-2.863708238,COC1CC(C(=O)C2CCC(Cl)CC2)CC(OC)C1OCCN1CCOCC1
5209,B-10816,[1-(4-phenylpiperazin-1-yl)-3-(4-propanoylphenoxy)propan-2-yl] acetate,HHXKJHBLIWETHV-UHFFFAOYSA-N,CCC(=O)C1CCC(CC1)OCC(OC(=O)C)CN1CCN(CC1)C1CCCCC1,063957-25-5,-4.27487149,CCC(=O)C1CCC(OCC(CN2CCN(C3CCCCC3)CC2)OC(C)=O)CC1
5210,B-10817,oxazepan-2-yl-(3.4.5-trimethoxyphenyl)methanone,MMBKLVFHUYWVND-UHFFFAOYSA-N,COC1C(OC)CC(CC1OC)C(=O)N1CCCCCO1,038943-51-0,-3.507945568,COC1CC(C(=O)N2CCCCCO2)CC(OC)C1OC
5211,B-10818,4-methoxy-6-[(E)-2-(4-methoxyphenyl)ethenyl]pyran-2-one,XLHIYUYCSMZCCC-VMPITWQZSA-N,COC1CCC(CC1)/C=C/C1CC(OC)CC(=O)O1,000500-62-9,-2.914872843,COC1CCC(C=CC2CC(OC)CC(=O)O2)CC1
5212,B-10819,2-[(2-methyl-4-nitrophenyl)hydrazinylidene]propanedinitrile,TXEGJMKARLVHJF-UHFFFAOYSA-N,N#CC(=NNC1CCC(CC1C)[N+](=O)[O-])C#N,064691-86-7,-4.294259757,CC1CC([N+](=O)[O-])CCC1NN=C(C#N)C#N
5213,B-10820,11-(2-sulfosulfanylethylamino)undecylbenzene,PVVOWFXFXMECMS-UHFFFAOYSA-N,OS(=O)(=O)SCCNCCCCCCCCCCCC1CCCCC1,027976-24-5,-5.392480732,O=S(=O)(O)SCCNCCCCCCCCCCCC1CCCCC1
5214,B-10821,N-carbamoyl-2-phenylbutanamide,AJOQSQHYDOFIOX-UHFFFAOYSA-N,CCC(C1CCCCC1)C(=O)NC(=O)N,006509-31-5,-2.761471979,CCC(C(=O)NC(N)=O)C1CCCCC1
5215,B-10823,1-[2-(2.4-dichlorophenyl)-2-[(2.4-dichlorophenyl)methoxy]ethyl]imidazole,BYBLEWFAAKGYCD-UHFFFAOYSA-N,ClC1CCC(C(C1)Cl)COC(C1CCC(CC1Cl)Cl)CN1CNCC1,022916-47-8,-5.079993738,ClC1CCC(COC(CN2CCNC2)C2CCC(Cl)CC2Cl)C(Cl)C1
5216,B-10824,[4-[bis(2-chloroethyl)amino]phenyl] 3-nitrobenzoate,OTCCTHBQSGSBNA-UHFFFAOYSA-N,ClCCN(C1CCC(CC1)OC(=O)C1CCCC(C1)[N+](=O)[O-])CCCl,022953-58-8,-6.253040071,O=C(OC1CCC(N(CCCl)CCCl)CC1)C1CCCC([N+](=O)[O-])C1
5217,B-10825,3-chloro-2-(2-chlorophenyl)oxirane-2-carboxamide,ZLEOLTREQNOWMM-UHFFFAOYSA-N,NC(=O)C1(OC1Cl)C1CCCCC1Cl,023474-42-2,-2.489382447,NC(=O)C1(C2CCCCC2Cl)OC1Cl
5218,B-10826,6-amino-1-methyl-3-propylpyrimidine-2.4-dione,OIHHBESCFLISMR-UHFFFAOYSA-N,CCCN1C(=O)CC(N(C1=O)C)N,063981-33-9,-1.610705204,CCCN1C(=O)CC(N)N(C)C1=O
5219,B-10827,3-(4-chlorophenyl)-1-(4.5-dihydro-1H-imidazol-2-ylmethyl)-4.5-dihydro-3H-1-benzazepin-2-one,XQKDTERCKFKPDY-UHFFFAOYSA-N,ClC1CCC(CC1)C1CCC2C(N(C1=O)CC1=NCCN1)CCCC2,054951-32-5,-5.103215009,O=C1C(C2CCC(Cl)CC2)CCC2CCCCC2N1CC1=NCCN1
5220,B-10828,5-[(3S.5R.8R.9S.10S.13R.14S.17R)-3.14-dihydroxy-10.13-dimethyl-1.2.3.4.5.6.7.8.9.11.12.15.16.17-tetradecahydrocyclopenta[a]phenanthren-17-yl]pyran-2-one,QEEBRPGZBVVINN-BMPKRDENSA-N,O[C@H]1CC[C@]2([C@@H](C1)CC[C@@H]1[C@@H]2CC[C@]2([C@]1(O)CC[C@@H]2C1CCC(=O)OC1)C)C,000465-21-4,-5.801144255,CC12CCC(O)CC1CCC1C2CCC2(C)C(C3CCC(=O)OC3)CCC12O
5221,B-10829,5-methyl-2-naphthalen-1-yl-2-(2-piperidin-1-ylethyl)hex-4-enamide,DRQHMYYWGQFHOV-UHFFFAOYSA-N,CC(=CCC(C1CCCC2C1CCCC2)(C(=O)N)CCN1CCCCC1)C,050765-91-8,-6.516413857,CC(C)=CCC(CCN1CCCCC1)(C(N)=O)C1CCCC2CCCCC21
5222,B-10831,2-phenanthren-3-ylpropanoic acid,BQGDBXHKMJKCKX-UHFFFAOYSA-N,CC(C1CCC2C(C1)C1CCCCC1CC2)C(=O)O,040453-15-4,-5.326573637,CC(C(=O)O)C1CCC2CCC3CCCCC3C2C1
5223,B-10832,methyl (1S.15S.18S.19S.20S)-18-hydroxy-1.3.11.12.14.15.16.17.18.19.20.21-dodecahydroyohimban-19-carboxylate,BLGXFZZNTVWLAY-DIRVCLHFSA-N,COC(=O)[C@@H]1[C@@H](O)CC[C@H]2[C@@H]1C[C@@H]1N(C2)CCC2C1[NH]C1C2CCCC1,000131-03-3,-4.030514954,COC(=O)C1C(O)CCC2CN3CCC4C5CCCCC5NC4C3CC21
5224,B-10833,1-(1H-indol-3-yl)-3-(4-methylpiperazin-1-yl)-2-phenylpropan-1-one,NEYWCGJURRTMTC-UHFFFAOYSA-N,CN1CCN(CC1)CC(C(=O)C1C[NH]C2C1CCCC2)C1CCCCC1,040281-38-7,-2.98945733,CN1CCN(CC(C(=O)C2CNC3CCCCC32)C2CCCCC2)CC1
5225,B-10834,5-ethyl-1.3-bis(methoxymethyl)-5-phenyl-1.3-diazinane-2.4.6-trione,DACOQFZGGLCXMA-UHFFFAOYSA-N,CCC1(C2CCCCC2)C(=O)N(COC)C(=O)N(C1=O)COC,027511-99-5,-2.426798767,CCC1(C2CCCCC2)C(=O)N(COC)C(=O)N(COC)C1=O
5226,B-10835,3.5-dibromo-2-[6-(2-sulfosulfanylethylamino)hexoxy]pyridine,MYAPKIZEEJRDPD-UHFFFAOYSA-N,BrC1CNC(C(C1)Br)OCCCCCCNCCSS(=O)(=O)O,041287-09-6,-4.552298698,O=S(=O)(O)SCCNCCCCCCOC1NCC(Br)CC1Br
5227,B-10836,(4E)-5-methyl-2-phenyl-4-[(phenylamino)methylidene]pyrazol-3-one,DSERYMNADDJALG-FOWTUZBSSA-N,CC1=NN(C(=O)/C/1=C/NC1CCCCC1)C1CCCCC1,004173-73-3,-4.371110146,CC1=NN(C2CCCCC2)C(=O)C1=CNC1CCCCC1
5228,B-10838,N-[1-[2-(1H-indol-3-yl)ethyl]piperidin-4-yl]benzamide,JXZZEXZZKAWDSP-UHFFFAOYSA-N,O=C(C1CCCCC1)NC1CCN(CC1)CCC1C[NH]C2C1CCCC2,026844-12-2,-5.548840068,O=C(NC1CCN(CCC2CNC3CCCCC23)CC1)C1CCCCC1
5229,B-10839,(E)-N-hydroxy-3-(4-pentoxyphenyl)prop-2-enamide,AVJWTAOORQVSBO-JXMROGBWSA-N,CCCCCOC1CCC(CC1)/C=C/C(=O)NO,026227-94-1,-3.815814723,CCCCCOC1CCC(C=CC(=O)NO)CC1
5230,B-10840,4-[(5-chloro-2-oxo-1.3-benzoxazol-3-yl)methoxy]-4-oxobutanoic acid,IRAKAHJFDQRYNL-UHFFFAOYSA-N,OC(=O)CCC(=O)OCN1C(=O)OC2C1CC(Cl)CC2,063992-03-0,-2.84518934,O=C(O)CCC(=O)OCN1C(=O)OC2CCC(Cl)CC21
5231,B-10844,[4-(bis(2-bromoethyl)amino)phenyl] 3-nitrobenzoate,RDBVETSHLDWOJK-UHFFFAOYSA-N,BrCCN(C1CCC(CC1)OC(=O)C1CCCC(C1)[N+](=O)[O-])CCBr,022953-43-1,-7.052888078,O=C(OC1CCC(N(CCBr)CCBr)CC1)C1CCCC([N+](=O)[O-])C1
5232,B-10845,2-ethyl-4-morpholin-4-yl-2-phenylbutanamide,LPKNOKRDTBOPAZ-UHFFFAOYSA-N,CCC(C1CCCCC1)(C(=O)N)CCN1CCOCC1,002977-26-6,-2.256815182,CCC(CCN1CCOCC1)(C(N)=O)C1CCCCC1
5233,B-10850,[2-(4-hydroxy-3-methoxyphenyl)-2-oxoethyl] pyridine-3-carboxylate,FELGAPTYPKHPJC-UHFFFAOYSA-N,COC1CC(CCC1O)C(=O)COC(=O)C1CCCNC1,019767-91-0,-2.000409889,COC1CC(C(=O)COC(=O)C2CCCNC2)CCC1O
5234,B-10851,4-[4-(4-chlorophenyl)-4-hydroxypiperidin-1-yl]-N.N-dimethyl-2.2-di(phenyl)butanamide,RDOIQAHITMMDAJ-UHFFFAOYSA-N,ClC1CCC(CC1)C1(O)CCN(CC1)CCC(C(=O)N(C)C)(C1CCCCC1)C1CCCCC1,034552-83-5,-7.070889916,CN(C)C(=O)C(CCN1CCC(O)(C2CCC(Cl)CC2)CC1)(C1CCCCC1)C1CCCCC1
5235,B-10852,1-[2-(1-hydroxyethyl)phenoxy]-3-(4-phenylpiperazin-1-yl)propan-2-ol,BQUJIAHAZAJIKW-UHFFFAOYSA-N,OC(CN1CCN(CC1)C1CCCCC1)COC1CCCCC1C(O)C,049646-03-9,-2.795382005,CC(O)C1CCCCC1OCC(O)CN1CCN(C2CCCCC2)CC1
5236,B-10853,4-(bis(3-methylbut-2-enyl)amino)-2-[2-(bis(3-methylbut-2-enyl)amino)ethyl]-2-naphthalen-1-ylbutanenitrile,DDWKCBUSQTZBMR-UHFFFAOYSA-N,N#CC(C1CCCC2C1CCCC2)(CCN(CC=C(C)C)CC=C(C)C)CCN(CC=C(C)C)CC=C(C)C,050765-82-7,-11.02185884,CC(C)=CCN(CC=C(C)C)CCC(C#N)(CCN(CC=C(C)C)CC=C(C)C)C1CCCC2CCCCC21
5237,B-10856,N-methyl-2-[4-[3.3.3-tri(phenyl)propyl]piperazin-1-yl]pyrimidin-4-amine,ZDJJYFKGWFWSON-UHFFFAOYSA-N,CNC1CCNC(N1)N1CCN(CC1)CCC(C1CCCCC1)(C1CCCCC1)C1CCCCC1,020980-16-9,-6.410898088,CNC1CCNC(N2CCN(CCC(C3CCCCC3)(C3CCCCC3)C3CCCCC3)CC2)N1
5238,B-10857,2-[4-(3-oxo-1H-isoindol-2-yl)phenyl]propanoic acid,RJMIEHBSYVWVIN-UHFFFAOYSA-N,OC(=O)C(C1CCC(CC1)N1CC2C(C1=O)CCCC2)C	,053022-60-9,-4.82,CC(C(=O)O)C1CCC(N2CC3CCCCC3C2=O)CC1
5239,B-10858,4-Hydroxy-3.5-dimethoxybenzamide,XWMSEZHMHBQVLE-UHFFFAOYSA-N,COC1CC(CC(C1O)OC)C(=O)N,003086-72-4,-0.5608856,COC1CC(C(N)=O)CC(OC)C1O
5240,B-10859,1.3-dimethyl-8-(phenylmethyl)-7H-purine-2.6-dione,SWKGFZTXWQMFLK-UHFFFAOYSA-N,CN1C2NC([NH]C2C(=O)N(C1=O)C)CC1CCCCC1,002879-15-4,-2.763447259,CN1C(=O)C2NC(CC3CCCCC3)NC2N(C)C1=O
5241,B-10860,2-(4-Butoxy-3-chlorophenyl)acetic acid,LXZKVRZDXPACMC-UHFFFAOYSA-N,CCCCOC1CCC(CC1Cl)CC(=O)O,015560-51-7,-3.673260776,CCCCOC1CCC(CC(=O)O)CC1Cl
5242,B-10861,5-[(1R.2S.4R.6R.7R.10S.11S.14S.16R)-14-hydroxy-7.11-dimethyl-3-oxapentacyclo[8.8.0.02.4.02.7.011.16]octadecan-6-yl]pyran-2-one,ATLJNLYIJOCWJE-CWMZOUAVSA-N,O[C@H]1CC[C@]2([C@@H](C1)CC[C@@H]1[C@@H]2CC[C@]2([C@]31O[C@@H]3C[C@@H]2C1CCC(=O)OC1)C)C,000465-39-4,-4.197168745,CC12CCC(O)CC1CCC1C2CCC2(C)C(C3CCC(=O)OC3)CC3OC312
5243,B-10862,2.6-dichloro-N-methylpyridine-4-carbohydrazide,LBIXEEKFDDQZKB-UHFFFAOYSA-N,CN(C(=O)C1CC(Cl)NC(C1)Cl)N,057803-52-8,-2.358900987,CN(N)C(=O)C1CC(Cl)NC(Cl)C1
5244,B-10863,2.2.2-trichloro-1-[1-(2-methylphenoxy)-3-(2.2.2-trichloro-1-hydroxyethoxy)propan-2-yl]oxyethanol,IPVVZYZTTKHXKK-UHFFFAOYSA-N,OC(C(Cl)(Cl)Cl)OC(COC1CCCCC1C)COC(C(Cl)(Cl)Cl)O,006055-48-7,-5.256893502,CC1CCCCC1OCC(COC(O)C(Cl)(Cl)Cl)OC(O)C(Cl)(Cl)Cl
5245,B-10864,5-ethyl-1-(morpholin-4-ylmethyl)-5-phenyl-1.3-diazinane-2.4.6-trione,FOEQHWOACOYFPK-UHFFFAOYSA-N,CCC1(C(=O)NC(=O)N(C1=O)CN1CCOCC1)C1CCCCC1,018009-29-5,-1.9248196,CCC1(C2CCCCC2)C(=O)NC(=O)N(CN2CCOCC2)C1=O
5246,B-10866,1-(3-methyl-2-nitroimidazol-4-yl)propan-2-ol,WKWQIMRIQQDCEM-UHFFFAOYSA-N,[O-][N+](=O)C1NCC(N1C)CC(O)C,023571-49-5,-1.296325267,CC(O)CC1CNC([N+](=O)[O-])N1C
5247,B-10867,2-[2.3-dichloro-4-(thiophene-3-carbonyl)phenoxy]acetic acid,FCWMZGOTKKOFPK-UHFFFAOYSA-N,OC(=O)COC1CCC(C(C1Cl)Cl)C(=O)C1CSCC1,055901-69-4,-4.287045685,O=C(O)COC1CCC(C(=O)C2CCSC2)C(Cl)C1Cl
5248,B-10868,5-tert-butylperoxy-5-(2-phenylethyl)-1.3-diazinane-2.4.6-trione,SNMPZGYSPHLFLT-UHFFFAOYSA-N,CC(OOC1(CCC2CCCCC2)C(=O)NC(=O)NC1=O)(C)C,053761-08-3,-3.742189956,CC(C)(C)OOC1(CCC2CCCCC2)C(=O)NC(=O)NC1=O
5249,B-10869,6-butylsulfanyl-7H-purine,VSDRAVPZXXXJDG-UHFFFAOYSA-N,CCCCSC1NCNC2C1[NH]CN2,005069-82-9,-2.181933257,CCCCSC1NCNC2NCNC21
5250,B-10870,5-[(3.5-dimethylphenoxy)methyl]-1.3-oxazolidin-2-one,IMWZZHHPURKASS-UHFFFAOYSA-N,O=C1NCC(O1)COC1CC(C)CC(C1)C,105801-80-7,-3.387192015,CC1CC(C)CC(OCC2CNC(=O)O2)C1
5251,B-10872,2-[2-(4-propan-2-ylphenyl)-1.3-benzothiazol-5-yl]acetic acid,RBULJSNVVSSVKH-UHFFFAOYSA-N,OC(=O)CC1CCC2C(C1)NC(S2)C1CCC(CC1)C(C)C,036782-45-3,-5.196652009,CC(C)C1CCC(C2NC3CC(CC(=O)O)CCC3S2)CC1
5252,B-10873,2-[2.3-dichloro-4-(thiophene-2-carbonyl)phenoxy]acetic acid,AGHANLSBXUWXTB-UHFFFAOYSA-N,OC(=O)COC1CCC(C(C1Cl)Cl)C(=O)C1CCCS1,040180-04-9,-4.285524512,O=C(O)COC1CCC(C(=O)C2CCCS2)C(Cl)C1Cl
5253,B-10874,2-[(2.4-dinitrophenyl)amino]-4-methylpentanoic acid,STMDPCBYJCIZOD-UHFFFAOYSA-N,CC(CC(C(=O)O)NC1CCC(CC1[N+](=O)[O-])[N+](=O)[O-])C,001655-57-8,-3.456113361,CC(C)CC(NC1CCC([N+](=O)[O-])CC1[N+](=O)[O-])C(=O)O
5254,B-10875,2-(2-hydroxyethoxy)-N-methyl-5-phenylbenzamide,MMWJCCRTDOVKIH-UHFFFAOYSA-N,OCCOC1CCC(CC1C(=O)NC)C1CCCCC1,063906-81-0,-2.952032793,CNC(=O)C1CC(C2CCCCC2)CCC1OCCO
5255,B-10877,2.2-dichloro-N-(2-ethoxyethyl)-N-[[4-(4-nitrophenoxy)phenyl]methyl]acetamide,QTRALMGDQMIVFF-UHFFFAOYSA-N,CCOCCN(C(=O)C(Cl)Cl)CC1CCC(CC1)OC1CCC(CC1)[N+](=O)[O-],025287-60-9,-6.448866964,CCOCCN(CC1CCC(OC2CCC([N+](=O)[O-])CC2)CC1)C(=O)C(Cl)Cl
5256,B-10878,N-hydroxy-3-(3-methoxy-4-propoxyphenyl)prop-2-enamide,WABYFRDCKCYZAZ-UHFFFAOYSA-N,CCCOC1CCC(CC1OC)C=CC(=O)NO,025357-05-5,-2.619844068,CCCOC1CCC(C=CC(=O)NO)CC1OC
5257,B-10880,5-butylpyridine-2-carboxylic acid,DGMPVYSXXIOGJY-UHFFFAOYSA-N,CCCCC1CCC(NC1)C(=O)O,000536-69-6,-2.232194726,CCCCC1CCC(C(=O)O)NC1
5258,B-10881,2-Amino-1-(3.4-dihydroxyphenyl)ethanone,CNFQARFTXUBHJY-UHFFFAOYSA-N,NCC(=O)C1CCC(C(C1)O)O,000499-61-6,0.776857245,NCC(=O)C1CCC(O)C(O)C1
5259,B-10882,(3-carbamoyloxy-2-phenylpropyl) carbamate,WKGXYQFOCVYPAC-UHFFFAOYSA-N,NC(=O)OCC(C1CCCCC1)COC(=O)N,025451-15-4,-1.951975275,NC(=O)OCC(COC(N)=O)C1CCCCC1
5260,B-10883,(9Z)-N.N-dimethyl-9-[3-(4-methylpiperazin-1-yl)propylidene]thioxanthene-2-sulfonamide,GFBKORZTTCHDGY-UWVJOHFNSA-N,CN1CCN(CC1)CC/C=C\1/C2CCCCC2SC2C1CC(CC2)S(=O)(=O)N(C)C,003313-26-6,-5.766201431,CN1CCN(CCC=C2C3CCCCC3SC3CCC(S(=O)(=O)N(C)C)CC23)CC1
5261,B-10884,N-cyclohexyl-2-(2.3-dihydroxypropoxy)benzamide,COMXLJMCXIJWOR-UHFFFAOYSA-N,OCC(COC1CCCCC1C(=O)NC1CCCCC1)O,063887-14-9,-3.337071584,O=C(NC1CCCCC1)C1CCCCC1OCC(O)CO
5262,B-10885,5-methyl-4-oxo-5-phenylfuran-2-carboxylic acid,DFDGRKNOFOJBAJ-UHFFFAOYSA-N,OC(=O)C1=CC(=O)C(O1)(C)C1CCCCC1,072420-38-3,-2.540911005,CC1(C2CCCCC2)OC(C(=O)O)=CC1=O
5263,B-10888,3-hydroxy-5-(hydroxymethyl)-2-methylpyridine-4-carboxylic acid,HXACOUQIXZGNBF-UHFFFAOYSA-N,OCC1CNC(C(C1C(=O)O)O)C,000082-82-6,-0.53847992,CC1NCC(CO)C(C(=O)O)C1O
5264,B-10891,(6R)-4-methoxy-6-[(E)-2-phenylethenyl]-5.6-dihydropyran-2-one,XEAQIWGXBXCYFX-GUOLPTJISA-N,COC1=CC(=O)O[C@H](C1)/C=C/C1CCCCC1,000500-64-1,-2.366545098,COC1=CC(=O)OC(C=CC2CCCCC2)C1
5265,B-10892,2.3.5-Trichloro-N-(3.5-dichloro-2-hydroxyphenyl)-6-hydroxybenzamide,JYWIYHUXVMAGLG-UHFFFAOYSA-N,ClC1CC(NC(=O)C2C(O)C(Cl)CC(C2Cl)Cl)C(C(C1)Cl)O,002277-92-1,-7.106005419,O=C(NC1CC(Cl)CC(Cl)C1O)C1C(O)C(Cl)CC(Cl)C1Cl
5266,B-10893,2.7-dimethyl-9-phenylacridine-3.6-diamine,AFYNWNWCDBFAJL-UHFFFAOYSA-N,NC1CC2NC3CC(N)C(CC3C(C2CC1C)C1CCCCC1)C,000477-74-7,-6.305772824,CC1CC2C(CC1N)NC1CC(N)C(C)CC1C2C1CCCCC1
5267,B-10894,1-[3-[2-hydroxy-3-[4-(4-methylphenyl)piperazin-1-yl]propoxy]phenyl]ethanone,HKUYGGWXIWIJIX-UHFFFAOYSA-N,OC(CN1CCN(CC1)C1CCC(CC1)C)COC1CCCC(C1)C(=O)C,063990-52-3,-3.158170408,CC(=O)C1CCCC(OCC(O)CN2CCN(C3CCC(C)CC3)CC2)C1
5268,B-10895,2-(5-methoxy-1H-indol-3-yl)acetic acid,COCNDHOPIHDTHK-UHFFFAOYSA-N,COC1CCC2C(C1)C(C[NH]2)CC(=O)O,110885-75-1,-1.644751916,COC1CCC2NCC(CC(=O)O)C2C1
5269,B-10897,1-(2-Chloroethyl)-2-methyl-4-nitroimidazole,GPHZIQJSCSATJL-UHFFFAOYSA-N,[O-][N+](=O)C1CN(C(N1)C)CCCl,016156-95-9,-2.439616821,CC1NC([N+](=O)[O-])CN1CCCl
5270,B-10898,1-methoxy-3-[3-(2-sulfosulfanylethylamino)propyl]benzene,NNGROHQONJXNMS-UHFFFAOYSA-N,COC1CCCC(C1)CCCNCCSS(=O)(=O)O,027976-18-7,-1.508529022,COC1CCCC(CCCNCCSS(=O)(=O)O)C1
5271,B-10900,1-[4-(1-hydroxypropyl)phenoxy]-3-(4-phenylpiperazin-1-yl)propan-2-ol,QPMZZGUMMBFZBE-UHFFFAOYSA-N,CCC(C1CCC(CC1)OCC(CN1CCN(CC1)C1CCCCC1)O)O,036115-57-8,-3.315926988,CCC(O)C1CCC(OCC(O)CN2CCN(C3CCCCC3)CC2)CC1
5272,B-10902,5-bromo-2-(2-hydroxyethoxy)-N-(2-hydroxyethyl)-3-phenylbenzamide,AFQKQSFAMSDDFK-UHFFFAOYSA-N,OCCOC1C(CC(CC1C1CCCCC1)Br)C(=O)NCCO,063887-01-4,-4.020148903,O=C(NCCO)C1CC(Br)CC(C2CCCCC2)C1OCCO
5273,B-10903,1-methoxy-2-[5-(3-sulfosulfanylpropylamino)pentyl]benzene,YCFUZOCNZLMFMG-UHFFFAOYSA-N,COC1CCCCC1CCCCCNCCCSS(=O)(=O)O,063991-72-0,-3.072592494,COC1CCCCC1CCCCCNCCCSS(=O)(=O)O
5274,B-10905,2-(2-phenyl-1.3-benzoxazol-5-yl)acetic acid,QFHJRGYAPLZITA-UHFFFAOYSA-N,OC(=O)CC1CCC2C(C1)NC(O2)C1CCCCC1,038196-02-0,-3.14349007,O=C(O)CC1CCC2OC(C3CCCCC3)NC2C1
5275,B-10908,4-(5-acetyl-1.3-benzothiazol-2-yl)benzamide,BQNBYMWITANTPB-UHFFFAOYSA-N,NC(=O)C1CCC(CC1)C1SC2C(N1)CC(CC2)C(=O)C,049702-22-9,-3.374886111,CC(=O)C1CCC2SC(C3CCC(C(N)=O)CC3)NC2C1