,C_ID,Name,InChIKey,SMILES,CAS,LogS,smiles_canon
2178,B-6917,2-(2-ethoxyethoxy)ethyl prop-2-enoate,FTALTLPZDVFJSS-UHFFFAOYSA-N,CCOCCOCCOC(=O)C=C,007328-17-8,-0.181251006,C=CC(=O)OCCOCCOCC
2179,B-6918,N.N-bis(1.3-benzothiazol-2-ylsulfanyl)-2-methylpropan-2-amine,VILGDADBAQFRJE-UHFFFAOYSA-N,CC(C)(C)N(SC1=NC2=CC=CC=C2S1)SC3=NC4=CC=CC=C4S3,003741-80-8,-8.362904931,CC(C)(C)N(Sc1nc2ccccc2s1)Sc1nc2ccccc2s1
2180,B-6919,2.2.4.4-tetramethylcyclobutane-1.3-diol,FQXGHZNSUOHCLO-UHFFFAOYSA-N,CC1(C(C(C1O)(C)C)O)C,003010-96-6,-0.373675179,CC1(C)C(O)C(C)(C)C1O
2181,B-6920,(4-ethoxy-2.3-difluorophenyl)boronic acid,OBKSFBWOZSQGGC-UHFFFAOYSA-N,B(C1=C(C(=C(C=C1)OCC)F)F)(O)O,212386-71-5,-3.143906176,CCOc1ccc(B(O)O)c(F)c1F
2182,B-6921,2.2-Dimethylpropane-1.3-diol,SLCVBVWXLSEKPL-UHFFFAOYSA-N,CC(C)(CO)CO,000126-30-7,0.901424656,CC(C)(CO)CO
2183,B-6922,oxolan-2-ylmethyl 2-methylprop-2-enoate,LCXXNKZQVOXMEH-UHFFFAOYSA-N,CC(=C)C(=O)OCC1CCCO1,002455-24-5,-0.952454494,C=C(C)C(=O)OCC1CCCO1
2184,B-6923,9H-fluoren-9-ylmethanol,XXSCONYSQQLHTH-UHFFFAOYSA-N,C1=CC=C2C(=C1)C(C3=CC=CC=C32)CO,002494-88-4,-1.267499817,OCC1c2ccccc2-c2ccccc21
2185,B-6924,5-Chloro-2-(2.4-dichlorophenoxy)aniline,SOOLDKUMSVNBIW-UHFFFAOYSA-N,C1=CC(=C(C=C1Cl)N)OC2=C(C=C(C=C2)Cl)Cl,056966-52-0,-5.045263233,Nc1cc(Cl)ccc1Oc1ccc(Cl)cc1Cl
2186,B-6925,bis(2-methylpropyl) cyclohexane-1.2-dicarboxylate,QUKHPBOCBWDYMW-UHFFFAOYSA-N,CC(C)COC(=O)C1CCCCC1C(=O)OCC(C)C,070969-58-3,-4.191233307,CC(C)COC(=O)C1CCCCC1C(=O)OCC(C)C
2187,B-6926,(8R.9S.13S.14S.17S)-3-methoxy-13-methyl-1.4.6.7.8.9.11.12.14.15.16.17-dodecahydrocyclopenta[a]phenanthren-17-ol,XFFZLECPCHQJIR-GFEQUFNTSA-N,C[C@]12CC[C@H]3[C@H]([C@@H]1CC[C@@H]2O)CCC4=C3CC=C(C4)OC,001091-93-6,-4.76106892,COC1=CCC2=C(CCC3C2CCC2(C)C(O)CCC32)C1
2188,B-6927,oxan-2-one,OZJPLYNZGCXSJM-UHFFFAOYSA-N,C1CCOC(=O)C1,000542-28-9,0.999492172,O=C1CCCCO1
2189,B-6928,3-phenylpropyl benzoate,ONPVMQLRVWKFFL-UHFFFAOYSA-N,C1=CC=C(C=C1)CCCOC(=O)C2=CC=CC=C2,060045-26-3,-4.800972343,O=C(OCCCc1ccccc1)c1ccccc1
2190,B-6929,1-lambda1-oxidanyl-2.2.6.6-tetramethylpiperidin-4-ol,UZFMOKQJFYMBGY-UHFFFAOYSA-N,CC1(CC(CC(N1[O])(C)C)O)C,002226-96-2,0.562706822,CC1(C)CC(O)CC(C)(C)N1[O]
2191,B-6930,2.7.8-trimethyl-2-(4.8.12-trimethyltridecyl)chroman-6-ol,QUEDXNHFTDJVIY-UHFFFAOYSA-N,CC1=C(C=C2CCC(OC2=C1C)(C)CCCC(C)CCCC(C)CCCC(C)C)O,001406-66-2,-8.505865557,Cc1c(O)cc2c(c1C)OC(C)(CCCC(C)CCCC(C)CCCC(C)C)CC2
2192,B-6931,(8R.9S.13S.14S.17S)-3-methoxy-13.17-dimethyl-7.8.9.11.12.14.15.16-octahydro-6H-cyclopenta[a]phenanthren-17-ol,AZQAIRJYCUWZPD-SLHNCBLASA-N,C[C@]12CC[C@H]3[C@H]([C@@H]1CC[C@]2(C)O)CCC4=C3C=CC(=C4)OC,018479-57-7,-3.027662677,COc1ccc2c(c1)CCC1C2CCC2(C)C1CCC2(C)O
2193,B-6932,N-phenylnaphthalen-2-amine,KEQFTVQCIQJIQW-UHFFFAOYSA-N,C1=CC=C(C=C1)NC2=CC3=CC=CC=C3C=C2,000135-88-6,-5.495911677,c1ccc(Nc2ccc3ccccc3c2)cc1
2194,B-6933,3.4.4a.5.6.7.8.8a-octahydrochromen-2-one,MSFLYJIWLHSQLG-UHFFFAOYSA-N,C1CCC2C(C1)CCC(=O)O2,004430-31-3,-0.586558636,O=C1CCC2CCCCC2O1
2195,B-6934,prop-2-enyl 2-(phenoxy)acetate,VUFZVGQUAVDKMC-UHFFFAOYSA-N,C=CCOC(=O)COC1=CC=CC=C1,007493-74-5,-2.536373209,C=CCOC(=O)COc1ccccc1
2196,B-6935,6-propyloxan-2-one,FYTRVXSHONWYNE-UHFFFAOYSA-N,CCCC1CCCC(=O)O1,000698-76-0,-0.948771673,CCCC1CCCC(=O)O1
2197,B-6936,2-(2-Chloroethoxy)ethanol,LECMBPWEOVZHKN-UHFFFAOYSA-N,C(COCCCl)O,000628-89-7,-0.250304617,OCCOCCCl
2198,B-6937,tris(2-methylphenyl) phosphite,BKHZQJRTFNFCTG-UHFFFAOYSA-N,CC1=CC=CC=C1OP(OC2=CC=CC=C2C)OC3=CC=CC=C3C,025586-42-9,-7.779841705,Cc1ccccc1OP(Oc1ccccc1C)Oc1ccccc1C
2199,B-6938,1-(phenylmethyl)piperidin-4-one,SJZKULRDWHPHGG-UHFFFAOYSA-N,C1CN(CCC1=O)CC2=CC=CC=C2,003612-20-2,-1.016979646,O=C1CCN(Cc2ccccc2)CC1
2200,B-6939,2.4.7.9-tetramethyldecane-4.7-diol,BTRWELPXUDWAGW-UHFFFAOYSA-N,CC(C)CC(C)(CCC(C)(CC(C)C)O)O,017913-76-7,-2.132014326,CC(C)CC(C)(O)CCC(C)(O)CC(C)C
2201,B-6940,4.5.6.7-tetrahydroisoindole-1.3-dione,AFJWMGOTLUUGHF-UHFFFAOYSA-N,C1CCC2=C(C1)C(=O)NC2=O,004720-86-9,-1.974516577,O=C1NC(=O)C2=C1CCCC2
2202,B-6941,Ethyl 4-dimethylaminobenzoate,FZUGPQWGEGAKET-UHFFFAOYSA-N,CCOC(=O)C1=CC=C(C=C1)N(C)C,010287-53-3,-3.399617541,CCOC(=O)c1ccc(N(C)C)cc1
2203,B-6942,N.N'-bis(5-methylhexan-2-yl)benzene-1.4-diamine,ZJNLYGOUHDJHMG-UHFFFAOYSA-N,CC(C)CCC(C)NC1=CC=C(C=C1)NC(C)CCC(C)C,003081-14-9,-5.580522697,CC(C)CCC(C)Nc1ccc(NC(C)CCC(C)C)cc1
2204,B-6943,2-methyl-N-propan-2-ylprop-2-enamide,YQIGLEFUZMIVHU-UHFFFAOYSA-N,CC(C)NC(=O)C(=C)C,013749-61-6,-0.620138787,C=C(C)C(=O)NC(C)C
2205,B-6944,2-[2-(2-ethylhexoxy)ethoxy]ethyl prop-2-enoate,XNMJQRPYVCIXGZ-UHFFFAOYSA-N,CCCCC(CC)COCCOCCOC(=O)C=C,117646-83-0,-3.693242197,C=CC(=O)OCCOCCOCC(CC)CCCC
2206,B-6945,N-(2-ethylhexyl)-7-methyloctanamide,CYJLFSMDQYFKRD-UHFFFAOYSA-N,CCCCC(CC)CNC(=O)CCCCCC(C)C,093820-33-8,-5.731539773,CCCCC(CC)CNC(=O)CCCCCC(C)C
2207,B-6946,2.2.2-Trifluoroacetamide,NRKYWOKHZRQRJR-UHFFFAOYSA-N,C(=O)(C(F)(F)F)N,000354-38-1,-1.485026967,NC(=O)C(F)(F)F
2208,B-6947,2-Ethylcyclopentane-1.3-dione,YDFBIBUYOUFJMR-UHFFFAOYSA-N,CCC1C(=O)CCC1=O,000823-36-9,-1.078475408,CCC1C(=O)CCC1=O
2209,B-6948,diethyl 2-butylpropanedioate,RPNFNBGRHCUORR-UHFFFAOYSA-N,CCCCC(C(=O)OCC)C(=O)OCC,000133-08-4,-2.816495594,CCCCC(C(=O)OCC)C(=O)OCC
2210,B-6949,prop-2-ynyl N-butylcarbamate,JTDBXHIIVZZXDH-UHFFFAOYSA-N,CCCCNC(=O)OCC#C,076114-73-3,-1.500667653,C#CCOC(=O)NCCCC
2211,B-6950,1-oxacycloheptadecan-2-one,LOKPJYNMYCVCRM-UHFFFAOYSA-N,C1CCCCCCCC(=O)OCCCCCCC1,000109-29-5,-6.392700026,O=C1CCCCCCCCCCCCCCCO1
2212,B-6951,4-(2-phenylpropan-2-yl)phenol,QBDSZLJBMIMQRS-UHFFFAOYSA-N,CC(C)(C1=CC=CC=C1)C2=CC=C(C=C2)O,000599-64-4,-4.071658669,CC(C)(c1ccccc1)c1ccc(O)cc1
2213,B-6952,3.7-Dimethyloctane-1.7-diol,FPCCDPXRNNVUOM-UHFFFAOYSA-N,CC(CCCC(C)(C)O)CCO,000107-74-4,-0.762687535,CC(CCO)CCCC(C)(C)O
2214,B-6953,(5-ethyl-1.3-dioxan-5-yl)methyl prop-2-enoate,STGXUBIZGYMIRM-UHFFFAOYSA-N,CCC1(COCOC1)COC(=O)C=C,066492-51-1,-1.333054875,C=CC(=O)OCC1(CC)COCOC1
2215,B-6954,3H-2-benzofuran-1-one,WNZQDUSMALZDQF-UHFFFAOYSA-N,C1C2=CC=CC=C2C(=O)O1,000087-41-2,-0.8627217,O=C1OCc2ccccc21
2216,B-6955,2.14-diazahexacyclo[13.7.1.14.8.02.13.019.23.012.24]tetracosa-1(22).4.6.8(24).9.11.13.15.17.19(23).20-undecaen-3-one,NIDFGXDXQKPZMA-UHFFFAOYSA-N,C1=CC2=C3C(=C1)C4=NC5=CC=CC6=C5C(=CC=C6)N4C(=O)C3=CC=C2,006829-22-7,-7.464231501,O=c1c2cccc3cccc(c32)c2nc3cccc4cccc(c43)n12
2217,B-6956,N.N-diethyl-4-phenyldiazenylaniline,SJJISKLXUJVZOA-UHFFFAOYSA-N,CCN(CC)C1=CC=C(C=C1)N=NC2=CC=CC=C2,002481-94-9,-5.982110468,CCN(CC)c1ccc(N=Nc2ccccc2)cc1
2218,B-6957,1-(4-chlorophenyl)-2-nitrobenzene,OMNWKPZIFZJANV-UHFFFAOYSA-N,C1=CC=C(C(=C1)C2=CC=C(C=C2)Cl)[N+](=O)[O-],006271-80-3,-4.937208898,O=[N+]([O-])c1ccccc1-c1ccc(Cl)cc1
2219,B-6958,2-Phenylethyl benzoate,OSORMYZMWHVFOZ-UHFFFAOYSA-N,C1=CC=C(C=C1)CCOC(=O)C2=CC=CC=C2,000094-47-3,-4.019177521,O=C(OCCc1ccccc1)c1ccccc1
2220,B-6959,1-cyanoprop-2-enyl acetate,MEHLEOUIWVWVBF-UHFFFAOYSA-N,CC(=O)OC(C=C)C#N,015667-63-7,-0.898704358,C=CC(C#N)OC(C)=O
2221,B-6960,4-Dimethylaminobenzaldehyde,BGNGWHSBYQYVRX-UHFFFAOYSA-N,CN(C)C1=CC=C(C=C1)C=O,000100-10-7,-2.282765939,CN(C)c1ccc(C=O)cc1
2222,B-6961,HEXANE-1.6-DIOL,XXMIOPMDWAUFGU-UHFFFAOYSA-N,C(CCCO)CCO,000629-11-8,0.927472919,OCCCCCCO
2223,B-6962,Ethyl 3-phenyloxirane-2-carboxylate,GOMAKLPNAAZVCJ-UHFFFAOYSA-N,CCOC(=O)C1C(O1)C2=CC=CC=C2,000121-39-1,-2.409651238,CCOC(=O)C1OC1c1ccccc1
2224,B-6963,2-dodecoxyethanol,SFNALCNOMXIBKG-UHFFFAOYSA-N,CCCCCCCCCCCCOCCO,009002-92-0,-1.459373261,CCCCCCCCCCCCOCCO
2225,B-6965,Triphenyl phosphite,HVLLSGMXQDNUAL-UHFFFAOYSA-N,C1=CC=C(C=C1)OP(OC2=CC=CC=C2)OC3=CC=CC=C3,000101-02-0,-6.523282731,c1ccc(OP(Oc2ccccc2)Oc2ccccc2)cc1
2226,B-6966,N.2-dimethyl-N-phenylbutanamide,LNODIGSABOGNBQ-UHFFFAOYSA-N,CCC(C)C(=O)N(C)C1=CC=CC=C1,084434-18-4,-1.58057588,CCC(C)C(=O)N(C)c1ccccc1
2227,B-6967,3-[3.5-bis(3-dimethylaminopropyl)-1.3.5-triazinan-1-yl]-N.N-dimethylpropan-1-amine,FZQMJOOSLXFQSU-UHFFFAOYSA-N,CN(C)CCCN1CN(CN(C1)CCCN(C)C)CCCN(C)C,015875-13-5,0.236102684,CN(C)CCCN1CN(CCCN(C)C)CN(CCCN(C)C)C1
2228,B-6968,2.4.6-Trimethylbenzene-1.3-diamine,ZVDSMYGTJDFNHN-UHFFFAOYSA-N,CC1=CC(=C(C(=C1N)C)N)C,003102-70-3,-0.820710574,Cc1cc(C)c(N)c(C)c1N
2229,B-6969,2-ethylhexyl 2-(4-chloro-2-methylphenoxy)acetate,IDGRPSMONFWWEK-UHFFFAOYSA-N,CCCCC(CC)COC(=O)COC1=C(C=C(C=C1)Cl)C,029450-45-1,-5.453923623,CCCCC(CC)COC(=O)COc1ccc(Cl)cc1C
2230,B-6972,2.5-DITERT-BUTYLBENZENE-1.4-DIOL,JZODKRWQWUWGCD-UHFFFAOYSA-N,CC(C)(C)C1=CC(=C(C=C1O)C(C)(C)C)O,000088-58-4,-4.76720783,CC(C)(C)c1cc(O)c(C(C)(C)C)cc1O
2231,B-6973,4-(4-Methoxyphenyl)butan-2-one,PCBSXBYCASFXTM-UHFFFAOYSA-N,CC(=O)CCC1=CC=C(C=C1)OC,000104-20-1,-1.918543322,COc1ccc(CCC(C)=O)cc1
2232,B-6974,prop-2-enyl 3-oxobutanoate,AXLMPTNTPOWPLT-UHFFFAOYSA-N,CC(=O)CC(=O)OCC=C,001118-84-9,-3.249669709,C=CCOC(=O)CC(C)=O
2233,B-6975,7-HYDROXY-3.7-DIMETHYLOCTANAL,WPFVBOQKRVRMJB-UHFFFAOYSA-N,CC(CCCC(C)(C)O)CC=O,000107-75-5,-0.692133542,CC(CC=O)CCCC(C)(C)O
2234,B-6976,6-heptyloxan-2-one,QRPLZGZHJABGRS-UHFFFAOYSA-N,CCCCCCCC1CCCC(=O)O1,000713-95-1,-3.448325136,CCCCCCCC1CCCC(=O)O1
2235,B-6977,ethyl 2-(2.4-dimethyl-1.3-dioxolan-2-yl)acetate,GSIXJEIRJVOUFB-UHFFFAOYSA-N,CCOC(=O)CC1(OCC(O1)C)C,006290-17-1,-2.179887223,CCOC(=O)CC1(C)OCC(C)O1
2236,B-6978,4-Ethoxybenzoic acid,SHSGDXCJYVZFTP-UHFFFAOYSA-N,CCOC1=CC=C(C=C1)C(=O)O,000619-86-3,-2.454900269,CCOc1ccc(C(=O)O)cc1
2237,B-6979,2-(2-undecyl-4.5-dihydroimidazol-1-yl)ethanol,QNDGQRJVVZJMJO-UHFFFAOYSA-N,CCCCCCCCCCCC1=NCCN1CCO,000136-99-2,-3.89865012,CCCCCCCCCCCC1=NCCN1CCO
2238,B-6980,prop-2-enyl 3-phenylprop-2-enoate,KCMITHMNVLRGJU-UHFFFAOYSA-N,C=CCOC(=O)C=CC1=CC=CC=C1,056289-56-6,-3.287012425,C=CCOC(=O)C=Cc1ccccc1
2239,B-6981,2-ethylhexyl 3-(3.5-ditert-butyl-4-hydroxyphenyl)propanoate,YSLFJMFSTOJEDL-UHFFFAOYSA-N,CCCCC(CC)COC(=O)CCC1=CC(=C(C(=C1)C(C)(C)C)O)C(C)(C)C,144429-84-5,-7.114616544,CCCCC(CC)COC(=O)CCc1cc(C(C)(C)C)c(O)c(C(C)(C)C)c1
2240,B-6982,4-methyl-1.3-benzothiazol-2-amine,GRIATXVEXOFBGO-UHFFFAOYSA-N,CC1=C2C(=CC=C1)SC(=N2)N,001477-42-5,-2.513870228,Cc1cccc2sc(N)nc12
2241,B-6983,(Z)-N.N-dibutyloctadec-9-enamide,YMGHPIVBMBXPCR-NXVVXOECSA-N,CCCCCCCC/C=C\CCCCCCCC(=O)N(CCCC)CCCC,005831-80-1,-4.788979925,CCCCCCCCC=CCCCCCCCC(=O)N(CCCC)CCCC
2242,B-6984,2-Amino-5-chlorophenol,FZCQMIRJCGWWCL-UHFFFAOYSA-N,C1=CC(=C(C=C1Cl)O)N,028443-50-7,-2.390658416,Nc1ccc(Cl)cc1O
2243,B-6985,N-phenyl-1-(phenylmethyl)piperidin-4-amine,FSXGJIFBTBJMHV-UHFFFAOYSA-N,C1CN(CCC1NC2=CC=CC=C2)CC3=CC=CC=C3,001155-56-2,-3.954218381,c1ccc(CN2CCC(Nc3ccccc3)CC2)cc1
2244,B-6986,4-[4-(3.4-difluorophenyl)cyclohexyl]cyclohexan-1-one,IUJMYVYPSSBPCX-UHFFFAOYSA-N,C1CC(CCC1C2CCC(=O)CC2)C3=CC(=C(C=C3)F)F,147622-85-3,-5.863869846,O=C1CCC(C2CCC(c3ccc(F)c(F)c3)CC2)CC1
2245,B-6987,1.3-thiazol-5-ylmethanol,WKBQQWDVVHGWDB-UHFFFAOYSA-N,C1=C(SC=N1)CO,038585-74-9,0.525763444,OCc1cncs1
2246,B-6988,2-Methylcyclopentane-1.3-dione,HXZILEQYFQYQCE-UHFFFAOYSA-N,CC1C(=O)CCC1=O,000765-69-5,-1.134419793,CC1C(=O)CCC1=O
2247,B-6989,[8-(hydroxymethyl)-3-tricyclo[5.2.1.02.6]decanyl]methanol,OTLDLKLSNZMTTA-UHFFFAOYSA-N,C1CC2C3CC(C2C1CO)CC3CO,026160-83-8,-1.251502835,OCC1CC2CC1C1CCC(CO)C21
2248,B-6990,4-[2-(4-hydroxycyclohexyl)propan-2-yl]cyclohexan-1-ol,CDBAMNGURPMUTG-UHFFFAOYSA-N,CC(C)(C1CCC(CC1)O)C2CCC(CC2)O,000080-04-6,-3.097606136,CC(C)(C1CCC(O)CC1)C1CCC(O)CC1
2249,B-6991,2.4.7.9-tetramethyldec-5-yne-4.7-diol,LXOFYPKXCSULTL-UHFFFAOYSA-N,CC(C)CC(C)(C#CC(C)(CC(C)C)O)O,000126-86-3,-2.124331577,CC(C)CC(C)(O)C#CC(C)(O)CC(C)C
2250,B-6992,1H-Imidazole,RAXXELZNTBOGNW-UHFFFAOYSA-N,C1=CN=CN1,000288-32-4,0.968396921,c1c[nH]cn1
2251,B-6993,1-phenylpyrrole-2.5-dione,HIDBROSJWZYGSZ-UHFFFAOYSA-N,C1=CC=C(C=C1)N2C(=O)C=CC2=O,000941-69-5,-2.327317055,O=C1C=CC(=O)N1c1ccccc1
2252,B-6994,3-(1.3-benzodioxol-5-yl)-2-methylpropanal,BOPPSUHPZARXTH-UHFFFAOYSA-N,CC(CC1=CC2=C(C=C1)OCO2)C=O,001205-17-0,-2.31343814,CC(C=O)Cc1ccc2c(c1)OCO2
2253,B-6995,5-(2-methylundecan-2-yldisulfanyl)-1.3.4-thiadiazole-2-thiol,UGMGEYBGNHXQQO-UHFFFAOYSA-N,CCCCCCCCCC(C)(C)SSC1=NN=C(S1)S,073984-93-7,-3.988525266,CCCCCCCCCC(C)(C)SSc1nnc(S)s1
2254,B-6996,6-[(E)-pent-3-enyl]oxan-2-one,NBCMACYORPIYNY-NSCUHMNNSA-N,C/C=C/CCC1CCCC(=O)O1,032764-98-0,-1.470804602,CC=CCCC1CCCC(=O)O1
2255,B-6997,N.N&apos-bis(3.3-dimethylbutan-2-yl)hexane-1.6-diamine,MORNPDNVUROSRS-UHFFFAOYSA-N,CC(C(C)(C)C)NCCCCCCNC(C)C(C)(C)C,957787-76-7,-3.517610353,CC(NCCCCCCNC(C)C(C)(C)C)C(C)(C)C
2256,B-6998,2-(aminomethyl)aniline,GVOYKJPMUUJXBS-UHFFFAOYSA-N,C1=CC=C(C(=C1)CN)N,026966-75-6,-1.663716567,NCc1ccccc1N
2257,B-6999,(9-methyl-6-propan-2-yl-1.4-dioxaspiro[4.5]decan-2-yl)methanol,ZBJCYZPANVLBRK-UHFFFAOYSA-N,CC1CCC(C2(C1)OCC(O2)CO)C(C)C,063187-91-7,-2.279383252,CC1CCC(C(C)C)C2(C1)OCC(CO)O2
2258,B-7000,[3-(phenoxy)phenyl]methanol,KGANAERDZBAECK-UHFFFAOYSA-N,C1=CC=C(C=C1)OC2=CC=CC(=C2)CO,013826-35-2,-2.742499103,OCc1cccc(Oc2ccccc2)c1
2259,B-7001,3-ethenyl-5-methyl-1.3-oxazolidin-2-one,HXFNRRNDWNSKFM-UHFFFAOYSA-N,CC1CN(C(=O)O1)C=C,003395-98-0,-0.145727205,C=CN1CC(C)OC1=O
2260,B-7002,N.N&apos-dibutylcarbamimidothioic acid,KFFQABQEJATQAT-UHFFFAOYSA-N,CCCCNC(=NCCCC)S,000109-46-6,-2.948584568,CCCCN=C(S)NCCCC
2261,B-7003,2-(2-methylprop-2-enoyloxy)ethyl 2-methylprop-2-enoate,STVZJERGLQHEKB-UHFFFAOYSA-N,CC(=C)C(=O)OCCOC(=O)C(=C)C,000097-90-5,-2.261313703,C=C(C)C(=O)OCCOC(=O)C(=C)C
2262,B-7004,2-(phenoxy)ethoxybenzene,XCSGHNKDXGYELG-UHFFFAOYSA-N,C1=CC=C(C=C1)OCCOC2=CC=CC=C2,000104-66-5,-3.988525311,c1ccc(OCCOc2ccccc2)cc1
2263,B-7006,Pentane-1.5-diol,ALQSHHUCVQOPAS-UHFFFAOYSA-N,C(CCO)CCO,000111-29-5,0.982346564,OCCCCCO
2264,B-7007,2.3-dihydroxypropyl octanoate,GHBFNMLVSPCDGN-UHFFFAOYSA-N,CCCCCCCC(=O)OCC(CO)O,026402-26-6,0.179475324,CCCCCCCC(=O)OCC(O)CO
2265,B-7008,dihexyl (Z)-but-2-enedioate,QMCVOSQFZZCSLN-QXMHVHEDSA-N,CCCCCCOC(=O)/C=C\C(=O)OCCCCCC,019139-31-2,-6.277830392,CCCCCCOC(=O)C=CC(=O)OCCCCCC
2266,B-7009,(8R.9S.13S.14S.17S)-13-ethyl-3-methoxy-6.7.8.9.11.12.14.15.16.17-decahydrocyclopenta[a]phenanthren-17-ol,CNPGMVAEOUQDBN-SLHNCBLASA-N,CC[C@]12CC[C@H]3[C@H]([C@@H]1CC[C@@H]2O)CCC4=C3C=CC(=C4)OC,003625-82-9,-4.875697762,CCC12CCC3c4ccc(OC)cc4CCC3C1CCC2O
2267,B-7010,ethyl 6-methoxyquinoline-4-carboxylate,AMTCPYGXTNRQQZ-UHFFFAOYSA-N,CCOC(=O)C1=C2C=C(C=CC2=NC=C1)OC,005941-92-4,-4.665112864,CCOC(=O)c1ccnc2ccc(OC)cc12
2268,B-7011,(2-nitrophenyl) acetate,MRCKRGSNLOHYRA-UHFFFAOYSA-N,CC(=O)OC1=CC=CC=C1[N+](=O)[O-],000610-69-5,-2.185525349,CC(=O)Oc1ccccc1[N+](=O)[O-]
2269,B-7012,tert-butyl 3-oxobutanoate,JKUYRAMKJLMYLO-UHFFFAOYSA-N,CC(=O)CC(=O)OC(C)(C)C,001694-31-1,-1.244955185,CC(=O)CC(=O)OC(C)(C)C
2270,B-7013,2-methoxy-1-(phenylmethoxy)-4-[(Z)-prop-1-enyl]benzene,YKSSSKBJDZDZTD-CLTKARDFSA-N,C/C=C\C1=CC(=C(C=C1)OCC2=CC=CC=C2)OC,000120-11-6,-5.579319373,CC=Cc1ccc(OCc2ccccc2)c(OC)c1
2271,B-7014,Methyl 12-hydroxyoctadecanoate,RVWOWEQKPMPWMQ-UHFFFAOYSA-N,CCCCCCC(CCCCCCCCCCC(=O)OC)O,000141-23-1,-4.014957335,CCCCCCC(O)CCCCCCCCCCC(=O)OC
2272,B-7015,2.3.5-trimethylbenzene-1.4-diol,AUFZRCJENRSRLY-UHFFFAOYSA-N,CC1=CC(=C(C(=C1O)C)C)O,000700-13-0,-1.638325492,Cc1cc(O)c(C)c(C)c1O
2273,B-7016,1-(3-Nitrophenyl)ethanone,ARKIFHPFTHVKDT-UHFFFAOYSA-N,CC(=O)C1=CC(=CC=C1)[N+](=O)[O-],000121-89-1,-2.282024115,CC(=O)c1cccc([N+](=O)[O-])c1
2274,B-7017,ethyl 4-methyl-2-oxocyclohexane-1-carboxylate,FFVHHWOJYFCNJP-UHFFFAOYSA-N,CCOC(=O)C1CCC(CC1=O)C,013537-82-1,-1.85713123,CCOC(=O)C1CCC(C)CC1=O
2275,B-7018,[(E)-3-methyl-4-oxobut-2-enyl] acetate,LPDDKAJRWGPGSI-ZZXKWVIFSA-N,C/C(=C\COC(=O)C)/C=O,026586-02-7,-0.460794593,CC(=O)OCC=C(C)C=O
2276,B-7019,1.3-benzodioxol-5-ylmethyl acetate,PFWYHTORQZAGCA-UHFFFAOYSA-N,CC(=O)OCC1=CC2=C(C=C1)OCO2,000326-61-4,-2.212672296,CC(=O)OCc1ccc2c(c1)OCO2
2277,B-7020,1-[(2.4-dimethylphenyl)diazenyl]naphthalen-2-ol,JBTHDAVBDKKSRW-UHFFFAOYSA-N,CC1=CC(=C(C=C1)N=NC2=C(C=CC3=CC=CC=C32)O)C,003118-97-6,-6.705441469,Cc1ccc(N=Nc2c(O)ccc3ccccc23)c(C)c1
2278,B-7021,1-(2.6-dimethylphenoxy)propan-2-one,XDJULAUHYAJQBU-UHFFFAOYSA-N,CC1=C(C(=CC=C1)C)OCC(=O)C,053012-41-2,-1.918543322,CC(=O)COc1c(C)cccc1C
2279,B-7024,1-(6-methoxynaphthalen-2-yl)ethanone,GGWCZBGAIGGTDA-UHFFFAOYSA-N,CC(=O)C1=CC2=C(C=C1)C=C(C=C2)OC,003900-45-6,-2.42072987,COc1ccc2cc(C(C)=O)ccc2c1
2280,B-7025,propyl (Z)-2-hydroxy-3-phenoxyprop-2-enoate,FOKZHJCFBNVOAV-LUAWRHEFSA-N,CCCOC(=O)/C(=C/OC1=CC=CC=C1)/O,016969-10-1,-1.62254675,CCCOC(=O)C(O)=COc1ccccc1
2281,B-7026,6-methoxy-11H-benzo[b][1]benzazepine,ZKHZWXLOSIGIGZ-UHFFFAOYSA-N,COC1=CC2=CC=CC=C2NC3=CC=CC=C31,004698-11-7,-4.51441706,COC1=Cc2ccccc2Nc2ccccc21
2282,B-7027,methyl 2-(3-acetyloxy-2-pentyl-1-cyclopent-2-enyl)acetate,IVEVYZAZHQVESM-UHFFFAOYSA-N,CCCCCC1=C(CCC1CC(=O)OC)OC(=O)C,057374-49-9,-3.721987378,CCCCCC1=C(OC(C)=O)CCC1CC(=O)OC
2283,B-7028,1-(1-hydroperoxycyclohexyl)peroxycyclohexan-1-ol,UICXTANXZJJIBC-UHFFFAOYSA-N,C1CCC(CC1)(O)OOC2(CCCCC2)OO,012262-58-7,-1.4229864,OOC1(OOC2(O)CCCCC2)CCCCC1
2284,B-7029,ethyl N.N-di(phenyl)carbamate,HKTSLDUAGCAISP-UHFFFAOYSA-N,CCOC(=O)N(C1=CC=CC=C1)C2=CC=CC=C2,000603-52-1,-3.969237759,CCOC(=O)N(c1ccccc1)c1ccccc1
2285,B-7030,ethyl 9-oxothioxanthene-2-carboxylate,PKUZBJXWIOTQFQ-UHFFFAOYSA-N,CCOC(=O)C1=CC2=C(C=C1)SC3=CC=CC=C3C2=O,083817-60-1,-6.756591815,CCOC(=O)c1ccc2sc3ccccc3c(=O)c2c1
2286,B-7031,2.5.8.11-tetramethyldodec-6-yne-5.8-diol,RHRRUYIZUBAQTQ-UHFFFAOYSA-N,CC(C)CCC(C)(C#CC(C)(CCC(C)C)O)O,068227-33-8,-3.437518464,CC(C)CCC(C)(O)C#CC(C)(O)CCC(C)C
2287,B-7033,2-methyl-4.6-bis(methylsulfanyl)benzene-1.3-diamine,TXDBDYPHJXUHEO-UHFFFAOYSA-N,CC1=C(C(=CC(=C1N)SC)SC)N,106264-79-3,-3.12159429,CSc1cc(SC)c(N)c(C)c1N
2288,B-7034,(3E)-2-chloro-3-(hydroxymethylidene)cyclohexene-1-carbaldehyde,JWUQFQYYMGMPKE-GQCTYLIASA-N,C1C/C(=C\O)/C(=C(C1)C=O)Cl,1416808-92-8,-2.574310385,O=CC1=C(Cl)C(=CO)CCC1
2289,B-7036,4-methyl-3a.4.7.7a-tetrahydro-2-benzofuran-1.3-dione,XPEKVUUBSDFMDR-UHFFFAOYSA-N,CC1C=CCC2C1C(=O)OC2=O,005333-84-6,-0.736268984,CC1C=CCC2C(=O)OC(=O)C12
2290,B-7038,1-(2-ethylbutyl)cyclohexane-1-carboxylic acid,XRKJBJLXKLOLKS-UHFFFAOYSA-N,CCC(CC)CC1(CCCCC1)C(=O)O,381209-09-2,-4.281691244,CCC(CC)CC1(C(=O)O)CCCCC1
2291,B-7039,2.5-bis(2.4.4-trimethylpentan-2-yl)benzene-1.4-diol,CLDZVCMRASJQFO-UHFFFAOYSA-N,CC(C)(C)CC(C)(C)C1=CC(=C(C=C1O)C(C)(C)CC(C)(C)C)O,000903-19-5,-7.093085587,CC(C)(C)CC(C)(C)c1cc(O)c(C(C)(C)CC(C)(C)C)cc1O
2292,B-7040,2-hydroxy-4-methylsulfanylbutanenitrile,VWWOJJANXYSACS-UHFFFAOYSA-N,CSCCC(C#N)O,017773-41-0,-0.07654115,CSCCC(O)C#N
2293,B-7041,2-Ethoxy-4-(hydroxymethyl)phenol,ULCZGZGLABEWDG-UHFFFAOYSA-N,CCOC1=C(C=CC(=C1)CO)O,004912-58-7,-1.4404755,CCOc1cc(CO)ccc1O
2294,B-7042,4-prop-2-enoyloxybutyl prop-2-enoate,JHWGFJBTMHEZME-UHFFFAOYSA-N,C=CC(=O)OCCCCOC(=O)C=C,001070-70-8,-1.805781834,C=CC(=O)OCCCCOC(=O)C=C
2295,B-7043,O-propan-2-yl propan-2-yloxycarbothioyldisulfanylmethanethioate,ZWWQICJTBOCQLA-UHFFFAOYSA-N,CC(C)OC(=S)SSC(=S)OC(C)C,000105-65-7,-7.605991949,CC(C)OC(=S)SSC(=S)OC(C)C
2296,B-7044,N.N'-Bis(2.2.6.6-tetramethylpiperidin-4-yl)hexane-1.6-diamine,UKJARPDLRWBRAX-UHFFFAOYSA-N,CC1(CC(CC(N1)(C)C)NCCCCCCNC2CC(NC(C2)(C)C)(C)C)C,061260-55-7,-2.350738834,CC1(C)CC(NCCCCCCNC2CC(C)(C)NC(C)(C)C2)CC(C)(C)N1
2297,B-7045,3-isocyanatopropyl-trimethoxysilane,FMGBDYLOANULLW-UHFFFAOYSA-N,CO[Si](CCCN=C=O)(OC)OC,015396-00-6,-3.256980578,CO[Si](CCCN=C=O)(OC)OC
2298,B-7046,octyl 5-chloro-2-hydroxy-3-phenylbenzoate,OZDDKSQRJSWQSV-UHFFFAOYSA-N,CCCCCCCCOC(=O)C1=CC(=CC(=C1O)C2=CC=CC=C2)Cl,067584-59-2,-6.271805144,CCCCCCCCOC(=O)c1cc(Cl)cc(-c2ccccc2)c1O
2299,B-7048,Diphenyl carbonate,ROORDVPLFPIABK-UHFFFAOYSA-N,C1=CC=C(C=C1)OC(=O)OC2=CC=CC=C2,000102-09-0,-4.216917068,O=C(Oc1ccccc1)Oc1ccccc1
2300,B-7049,prop-2-enyl 2-cyclohexyloxyacetate,MBUYSYKXSMTIPP-UHFFFAOYSA-N,C=CCOC(=O)COC1CCCCC1,068901-15-5,-2.07844017,C=CCOC(=O)COC1CCCCC1
2301,B-7050,2-[2-(phenoxy)ethoxy]ethanol,ZUAURMBNZUCEAF-UHFFFAOYSA-N,C1=CC=C(C=C1)OCCOCCO,000104-68-7,-0.716525138,OCCOCCOc1ccccc1
2302,B-7051,1-[C-(2-chlorophenyl)-N-methylcarbonimidoyl]cyclopentan-1-ol,FJGPXUPMNZOTLX-UHFFFAOYSA-N,CN=C(C1=CC=CC=C1Cl)C2(CCCC2)O,006740-87-0,-2.944717486,CN=C(c1ccccc1Cl)C1(O)CCCC1
2303,B-7052,Dihexyl hexanedioate,HHECSPXBQJHZAF-UHFFFAOYSA-N,CCCCCCOC(=O)CCCCC(=O)OCCCCCC,000110-33-8,-5.082597863,CCCCCCOC(=O)CCCCC(=O)OCCCCCC
2304,B-7053,dimethyl 2-methylidenebutanedioate,ZWWQRMFIZFPUAA-UHFFFAOYSA-N,COC(=O)CC(=C)C(=O)OC,000617-52-7,-0.653771966,C=C(CC(=O)OC)C(=O)OC