,C_ID,Name,InChIKey,SMILES,CAS,LogS,smiles_canon
415,B-1842,DODECAMETHYLPENTASILOXANE,FBZANXDWQAVSTQ-UHFFFAOYSA-N,C[Si](C)(C)O[Si](C)(C)O[Si](C)(C)O[Si](C)(C)O[Si](C)(C)C,000141-63-9,-9.737718832,C[Si](C)(C)O[Si](C)(C)O[Si](C)(C)O[Si](C)(C)O[Si](C)(C)C
416,B-1852,BIS(2-ETHYLHEXYL) TEREPHTHALATE,RWPICVVBGZBXNA-UHFFFAOYSA-N,CCCCC(CC)COC(=O)C1=CC=C(C=C1)C(=O)OCC(CC)CCCC,006422-86-2,-8.98963889,CCCCC(CC)COC(=O)c1ccc(C(=O)OCC(CC)CCCC)cc1
417,B-1859,2.5-DICHLOROBENZOIC ACID,QVTQYSFCFOGITD-UHFFFAOYSA-N,C1=CC(=C(C=C1Cl)C(=O)O)Cl,000050-79-3,-2.377966118,O=C(O)c1cc(Cl)ccc1Cl
418,B-1870,2H-1-Benzopyran-2-one. 4-methyl-,PSGQCCSGKGJLRL-UHFFFAOYSA-N,CC1=CC(=O)OC2=CC=CC=C12,000607-71-6,-2.411489575,Cc1cc(=O)oc2ccccc12
419,B-1872,2.4-DINITROCHLOROBENZENE,VYZAHLCBVHPDDF-UHFFFAOYSA-N,C1=CC(=C(C=C1[N+](=O)[O-])[N+](=O)[O-])Cl,000097-00-7,-4.340860276,O=[N+]([O-])c1ccc(Cl)c([N+](=O)[O-])c1
420,B-1888,4-Thiazolidinone. 2-thioxo-,KIWUVOGUEXMXSV-UHFFFAOYSA-N,C1C(=O)N=C(S1)S,000141-84-4,-1.772256492,O=C1CSC(S)=N1
421,B-1899,5-tert-Butyl-2.4.6-trinitroxylene,XMWRWTSZNLOZFN-UHFFFAOYSA-N,CC1=C(C(=C(C(=C1[N+](=O)[O-])C(C)(C)C)[N+](=O)[O-])C)[N+](=O)[O-],000081-15-2,-5.782955003,Cc1c([N+](=O)[O-])c(C)c([N+](=O)[O-])c(C(C)(C)C)c1[N+](=O)[O-]
422,B-1918,N-PHENYLTHIOUREA,FULZLIGZKMKICU-UHFFFAOYSA-N,C1=CC=C(C=C1)N=C(N)S,000103-85-5,-1.789774764,NC(S)=Nc1ccccc1
423,B-1921,OXYBENZONE,DXGLGDHPHMLXJC-UHFFFAOYSA-N,COC1=CC(=C(C=C1)C(=O)C2=CC=CC=C2)O,000131-57-7,-4.790209062,COc1ccc(C(=O)c2ccccc2)c(O)c1
424,B-1927,Hexanedioic acid. dibutyl ester,XTJFFFGAUHQWII-UHFFFAOYSA-N,CCCCOC(=O)CCCCC(=O)OCCCC,000105-99-7,-3.868157232,CCCCOC(=O)CCCCC(=O)OCCCC
425,B-1933,2.2.4-Trimethyl-1.3-pentanediol diisobutyrate,OMVSWZDEEGIJJI-UHFFFAOYSA-N,CC(C)C(C(C)(C)COC(=O)C(C)C)OC(=O)C(C)C,006846-50-0,-4.280912081,CC(C)C(=O)OCC(C)(C)C(OC(=O)C(C)C)C(C)C
426,B-1951,Carbamic acid. butyl-. 3-iodo-2-propynyl ester,WYVVKGNFXHOCQV-UHFFFAOYSA-N,CCCCNC(=O)OCC#CI,055406-53-6,-3.255720797,CCCCNC(=O)OCC#CI
427,B-1952,PYRIFENOX,CKPCAYZTYMHQEX-JXAWBTAJSA-N,CO/N=C(/CC1=CN=CC=C1)\C2=C(C=C(C=C2)Cl)Cl,088283-41-4,-3.293980956,CON=C(Cc1cccnc1)c1ccc(Cl)cc1Cl
428,B-1962,Octyl Methoxycinnamate,YBGZDTIWKVFICR-JLHYYAGUSA-N,CCCCC(CC)COC(=O)/C=C/C1=CC=C(C=C1)OC,005466-77-3,-6.120588886,CCCCC(CC)COC(=O)C=Cc1ccc(OC)cc1
429,B-1970,THIOUREA,UMGDCJDMYOKAJW-UHFFFAOYSA-N,C(=N)(N)S,000062-56-6,0.245606019,N=C(N)S
430,B-1971,Benzenamine. N-nitro-,VBEGHXKAFSLLGE-UHFFFAOYSA-N,C1=CC=C(C=C1)N[N+](=O)[O-],000645-55-6,-2.000408925,O=[N+]([O-])Nc1ccccc1
431,B-1975,Dimethyl Hexahydroterephthalate,LNGAGQAGYITKCW-UHFFFAOYSA-N,COC(=O)C1CCC(CC1)C(=O)OC,000094-60-0,-1.387207679,COC(=O)C1CCC(C(=O)OC)CC1
432,B-1980,1-AMINOANTHRAQUINONE,KHUFHLFHOQVFGB-UHFFFAOYSA-N,C1=CC=C2C(=C1)C(=O)C3=C(C2=O)C(=CC=C3)N,000082-45-1,-5.871631305,Nc1cccc2c1C(=O)c1ccccc1C2=O
433,B-1994,PARAQUAT ION,INFDPOAKFNIJBF-UHFFFAOYSA-N,C[N+]1=CC=C(C=C1)C2=CC=[N+](C=C2)C,004685-14-7,0.517610567,C[n+]1ccc(-c2cc[n+](C)cc2)cc1
434,B-2000,NAPHTHALENE. 1.5-DINITRO-,ZUTCJXFCHHDFJS-UHFFFAOYSA-N,C1=CC2=C(C=CC=C2[N+](=O)[O-])C(=C1)[N+](=O)[O-],000605-71-0,-3.575367038,O=[N+]([O-])c1cccc2c([N+](=O)[O-])cccc12
435,B-2010,Butanoic_acid._3-oxo-._cyclohexyl_ester,GJOSRMAVDXJBCZ-UHFFFAOYSA-N,CC(=O)CC(=O)OC1CCCCC1,006947-02-0,-2.903656089,CC(=O)CC(=O)OC1CCCCC1
436,B-2012,METHIMAZOLE,PMRYVIKBURPHAH-UHFFFAOYSA-N,CN1C=CN=C1S,000060-56-0,0.243477995,Cn1ccnc1S
437,B-2016,1.2-Ethanediamine. N-1-naphthalenyl-,NULAJYZBOLVQPQ-UHFFFAOYSA-N,C1=CC=C2C(=C1)C=CC=C2NCCN,000551-09-7,-1.969089603,NCCNc1cccc2ccccc12
438,B-2032,5-NITRO-2-TOLUIDINE,DSBIJCMXAIKKKI-UHFFFAOYSA-N,CC1=C(C=C(C=C1)[N+](=O)[O-])N,000099-55-8,-1.182271957,Cc1ccc([N+](=O)[O-])cc1N
439,B-2045,DINONYL PHTHALATE,DROMNWUQASBTFM-UHFFFAOYSA-N,CCCCCCCCCOC(=O)C1=CC=CC=C1C(=O)OCCCCCCCCC,000084-76-4,-9.507876621,CCCCCCCCCOC(=O)c1ccccc1C(=O)OCCCCCCCCC
440,B-2051,N-(Cyclohexylthio)phthalimide,UEZWYKZHXASYJN-UHFFFAOYSA-N,C1CCC(CC1)SN2C(=O)C3=CC=CC=C3C2=O,017796-82-6,-4.074783206,O=C1c2ccccc2C(=O)N1SC1CCCCC1
441,B-2053,FENARIMOL,NHOWDZOIZKMVAI-KRWDZBQOSA-N,ClC1CCC(CC1)[C@@](C1CCCCC1Cl)(C1CNCNC1)O,060168-88-9,-4.373962292,OC(C1CCC(Cl)CC1)(C1CNCNC1)C1CCCCC1Cl
442,B-2077,CoatOsil 1770,UDUKMRHNZZLJRB-UHFFFAOYSA-N,CCO[Si](CCC1CCC2C(C1)O2)(OCC)OCC,010217-34-2,-2.525587148,CCO[Si](CCC1CCC2OC2C1)(OCC)OCC
443,B-2081,5-NITROSALICYLIC ACID,PPDRLQLKHRZIJC-UHFFFAOYSA-N,C1=CC(=C(C=C1[N+](=O)[O-])C(=O)O)O,000096-97-9,-1.961705784,O=C(O)c1cc([N+](=O)[O-])ccc1O
444,B-2087,PROCYMIDONE,QXJKBPAVAHBARF-BETUJISGSA-N,O=C1N(C2CC(Cl)CC(C2)Cl)C(=O)[C@@]2([C@@]1(C)C2)C,032809-16-8,-4.800319862,CC12CC1(C)C(=O)N(C1CC(Cl)CC(Cl)C1)C2=O
445,B-2092,1.1-DIMETHYLUREA,YBBLOADPFWKNGS-UHFFFAOYSA-N,CN(C)C(=O)N,000598-94-7,-0.246055197,CN(C)C(N)=O
446,B-2095,3-HYDROXY-5-METHYLISOXAZOLE,KGVPNLBXJKTABS-UHFFFAOYSA-N,CC1=CC(=O)NO1,010004-44-1,-0.066610903,Cc1cc(=O)[nH]o1
447,B-2102,Dimethindene,MVMQESMQSYOVGV-UHFFFAOYSA-N,CC(C1=CC=CC=N1)C2=C(CC3=CC=CC=C32)CCN(C)C,005636-83-9,-3.087624023,CC(C1=C(CCN(C)C)Cc2ccccc21)c1ccccn1
448,B-2125,2.2-BIS(4-HYDROXY-3.5-DIBROMOPHENYL)PROPANE,VEORPZCZECFIRK-UHFFFAOYSA-N,CC(C)(C1=CC(=C(C(=C1)Br)O)Br)C2=CC(=C(C(=C2)Br)O)Br,000079-94-7,-6.502506978,CC(C)(c1cc(Br)c(O)c(Br)c1)c1cc(Br)c(O)c(Br)c1
449,B-2127,2-HYDROXYPYRIDINE,UBQKCCHYAOITMY-UHFFFAOYSA-N,C1=CC(=O)NC=C1,000142-08-5,1.021819483,O=c1cccc[nH]1
450,B-2145,6A-BETA-APORPHINE-10.11-DIOL,VMWNQDUVQKEIOC-CYBMUJFWSA-N,CN1CCC2=C3[C@H]1CC4=C(C3=CC=C2)C(=C(C=C4)O)O,000058-00-4,-1.20693961,CN1CCc2cccc3c2C1Cc1ccc(O)c(O)c1-3
451,B-2149,1-[(2-methoxyphenyl)diazenyl]naphthalen-2-ol,ALLOLPOYFRLCCX-UHFFFAOYSA-N,COC1=CC=CC=C1N=NC2=C(C=CC3=CC=CC=C32)O,001229-55-6,-8.926014871,COc1ccccc1N=Nc1c(O)ccc2ccccc12
452,B-2151,Osthole,MBRLOUHOWLUMFF-UHFFFAOYSA-N,C1C(C(C2C(C1)C=CC(=O)O2)CC=C(C)C)OC,000484-12-8,-4.308724443,COC1CCC2C=CC(=O)OC2C1CC=C(C)C
453,B-2174,.beta...beta.-Carotene,OENHQHLEOONYIE-JLTXGRSLSA-N,CC1=C(C(CCC1)(C)C)/C=C/C(=C/C=C/C(=C/C=C/C=C(/C=C/C=C(/C=C/C2=C(CCCC2(C)C)C)\C)\C)/C)/C,007235-40-7,-5.951734065,CC(C=CC=C(C)C=CC1=C(C)CCCC1(C)C)=CC=CC=C(C)C=CC=C(C)C=CC1=C(C)CCCC1(C)C
454,B-2181,Dodine,HILAYQUKKYWPJW-UHFFFAOYSA-N,CCCCCCCCCCCCN=C(N)N,000112-65-2,-2.557449911,CCCCCCCCCCCCN=C(N)N
455,B-2188,2.4.6-Cycloheptatrien-1-one. 3.7-dibromo-2-hydro,RSXVFMVFPPBRGL-UHFFFAOYSA-N,C1=CC(=C(C(=O)C(=C1)Br)O)Br,004636-41-3,-3.502551257,O=c1c(Br)cccc(Br)c1O
456,B-2195,Boscalid,WYEMLYFITZORAB-UHFFFAOYSA-N,C1=CC=C(C(=C1)C2=CC=C(C=C2)Cl)NC(=O)C3=C(N=CC=C3)Cl,188425-85-6,-4.872802102,O=C(Nc1ccccc1-c1ccc(Cl)cc1)c1cccnc1Cl
457,B-2207,4-Imidazolidinone. 3-phenyl-2-thioxo-,ZZRIQDWDJVLELF-UHFFFAOYSA-N,C1C(=O)N(C(=N1)S)C2=CC=CC=C2,002010-15-3,-3.242451073,O=C1CN=C(S)N1c1ccccc1
458,B-2216,Prenylamine,IFFPICMESYHZPQ-UHFFFAOYSA-N,CC(CC1=CC=CC=C1)NCCC(C2=CC=CC=C2)C3=CC=CC=C3,000390-64-7,-3.818872234,CC(Cc1ccccc1)NCCC(c1ccccc1)c1ccccc1
459,B-2217,DIMETHYLUREA. SYM,MGJKQDOBUOMPEZ-UHFFFAOYSA-N,CNC(=O)NC,000096-31-1,0.938636234,CNC(=O)NC
460,B-2219,DL-Alanine. N-formyl-,SRBATDDRZARFDZ-UHFFFAOYSA-N,CC(NC=O)C(O)=O,005893-10-7,0.010587265,CC(NC=O)C(=O)O
461,B-2220,BENZOIC ACID,WPYMKLBDIGXBTP-RALIUCGRSA-N,[2H]C1=C(C(=C(C(=C1[2H])[2H])C(=O)O)[2H])[2H],001079-02-3,-1.555307879,[H]c1c([H])c([H])c(C(=O)O)c([H])c1[H]
462,B-2225,Acetylpyruvic acid,UNRQTHVKJQUDDF-UHFFFAOYSA-N,CC(=O)CC(=O)C(=O)O,005699-58-1,0.29055642,CC(=O)CC(=O)C(=O)O
463,B-2229,.alpha.-glucoforanose. 1.2:5.6-bis-O-(1-methylet,KEJGAYKWRDILTF-JDDHQFAOSA-N,CC1(OC[C@@H](O1)[C@@H]2[C@@H]([C@@H]3[C@H](O2)OC(O3)(C)C)O)C,000582-52-5,-0.785029608,CC1(C)OCC(C2OC3OC(C)(C)OC3C2O)O1
464,B-2246,TRIS(2-ETHYLHEXYL) PHOSPHATE,GTVWRXDRKAHEAD-UHFFFAOYSA-N,CCCCC(CC)COP(=O)(OCC(CC)CCCC)OCC(CC)CCCC,000078-42-2,-5.859988434,CCCCC(CC)COP(=O)(OCC(CC)CCCC)OCC(CC)CCCC
465,B-2269,Benzaldehyde. 5-bromo-2-hydroxy-,MKKSTJKBKNCMRV-UHFFFAOYSA-N,C1=CC(=C(C=C1Br)C=O)O,001761-61-1,-3.303239269,O=Cc1cc(Br)ccc1O
466,B-2274,2H-1-Benzopyran-3-carboxylic acid. 2-oxo-,ACMLKANOGIVEPB-UHFFFAOYSA-N,C1=CC=C2C(=C1)C=C(C(=O)O2)C(=O)O,000531-81-7,-2.158545238,O=C(O)c1cc2ccccc2oc1=O
467,B-2284,Benzeneacetic acid. .alpha...alpha.-diphenyl-,DCYGAPKNVCQNOE-UHFFFAOYSA-N,C1=CC=C(C=C1)C(C2=CC=CC=C2)(C3=CC=CC=C3)C(=O)O,000595-91-5,-3.760949951,O=C(O)C(c1ccccc1)(c1ccccc1)c1ccccc1
468,B-2285,THIOSEMICARBAZIDE,BRWIZMBXBAOCCF-UHFFFAOYSA-N,C(=NN)(N)S,000079-19-6,-0.95966137,NN=C(N)S
469,B-2286,3.4.8.9.12.13-Hexaoxa-1.6-diazabicyclo[4.4.4]tet,HMWPNDNFTFSCEB-UHFFFAOYSA-N,C1N2COOCN(COO1)COOC2,000283-66-9,-3.318418142,C1OOCN2COOCN1COOC2
470,B-2299,2-Naphthalenecarboxylic acid. 1.4-dihydro-,ZEPJITYWIPTURQ-UHFFFAOYSA-N,C1C=C(CC2=CC=CC=C21)C(=O)O,003299-82-9,-3.525044807,O=C(O)C1=CCc2ccccc2C1
471,B-2308,Tridecanoic acid. 2.4-dioxo-,LZWZXWJNHWBFTP-UHFFFAOYSA-N,O=C(C(=O)O)CC(=O)CCCCCCCCC,085763-15-1,-3.083359265,CCCCCCCCCC(=O)CC(=O)C(=O)O
472,B-2345,Benzoic acid. 3.5-dihydroxy-4-methoxy-. methyl e,SUGIJIFASYORQN-UHFFFAOYSA-N,COC1=C(C=C(C=C1O)C(=O)OC)O,024093-81-0,-1.59808982,COC(=O)c1cc(O)c(OC)c(O)c1
473,B-2356,DIPHENYLUREA. SYM,XKAFKUGMXFMRCC-UHFFFAOYSA-N,C1=CC=C(C=C1)N(C2=CC=CC=C2)C(=O)N,026763-63-3,-3.15075644,NC(=O)N(c1ccccc1)c1ccccc1
474,B-2358,ACETYLSALICYLIC ACID.ACETYLOXYMETHYL ESTER,QNGPCPPXGGUHNU-UHFFFAOYSA-N,CC(=O)OCOC(=O)C1=CC=CC=C1OC(=O)C,032620-68-1,-2.016190466,CC(=O)OCOC(=O)c1ccccc1OC(C)=O
475,B-2374,2.4-IMIDAZOLIDINEDIONE._5.5-DIMETHYL-,YIROYDNZEPTFOL-UHFFFAOYSA-N,CC1(C(=O)NC(=O)N1)C,000077-71-4,-0.107650826,CC1(C)NC(=O)NC1=O
476,B-2379,2H-1-Benzopyran-2-one. 6-amino-,ZOJAINJCZSVZGW-UHFFFAOYSA-N,C1=CC2=C(C=CC(=O)O2)C=C1N,014415-44-2,-1.839901338,Nc1ccc2oc(=O)ccc2c1
477,B-2380,1.6-Bis(trimethoxysilyl)hexane,GFKCWAROGHMSTC-UHFFFAOYSA-N,CO[Si](CCCCCC[Si](OC)(OC)OC)(OC)OC,087135-01-1,-3.792950644,CO[Si](CCCCCC[Si](OC)(OC)OC)(OC)OC
478,B-2385,4-IODOANTIPYRINE,ZZOBLCHCPLOXCE-UHFFFAOYSA-N,CC1=C(C(=O)N(N1C)C2=CC=CC=C2)I,000129-81-7,-2.594019427,Cc1c(I)c(=O)n(-c2ccccc2)n1C
479,B-2386,HYDROXYACETIC ACID,AEMRFAOFKBGASW-UHFFFAOYSA-N,C(C(=O)O)O,000079-14-1,0.967089899,O=C(O)CO
480,B-2388,TRIOCTONOIN,VLPFTAMPNXLGLX-UHFFFAOYSA-N,CCCCCCCC(=O)OCC(COC(=O)CCCCCCC)OC(=O)CCCCCCC,000538-23-8,-6.070684207,CCCCCCCC(=O)OCC(COC(=O)CCCCCCC)OC(=O)CCCCCCC
481,B-2396,GUANIDINE,ZRALSGWEFCBTJO-UHFFFAOYSA-N,C(=N)(N)N,000113-00-8,-1.506549148,N=C(N)N
482,B-2400,LINOLEIC ACID,OYHQOLUKZRVURQ-HZJYTTRNSA-N,CCCCC/C=C\C/C=C\CCCCCCCC(=O)O,000060-33-3,-5.24645832,CCCCCC=CCC=CCCCCCCCC(=O)O
483,B-2408,1-Butanone. 4-[4-(4-chlorophenyl)-4-hydroxy-1-pi,XMYBCDHWKUBJDW-UHFFFAOYSA-N,C1CN(CCC1(C2=CC=C(C=C2)Cl)O)CCCC(=O)C3=CC=CC=C3,031293-71-7,-4.708639389,O=C(CCCN1CCC(O)(c2ccc(Cl)cc2)CC1)c1ccccc1
484,B-2412,1.2-HYDRAZINECARBOTHIOAMIDE,KCOYHFNCTWXETP-UHFFFAOYSA-N,C(=NN=C(N)S)(N)S,000142-46-1,-1.796516516,NC(S)=NN=C(N)S
485,B-2415,Hexanedioic acid. diisononyl ester,AYWLCKHHUFBVGJ-UHFFFAOYSA-N,CC(C)CCCCCCOC(=O)CCCCC(=O)OCCCCCCC(C)C,033703-08-1,-9.258147299,CC(C)CCCCCCOC(=O)CCCCC(=O)OCCCCCCC(C)C
486,B-2425,Glycerol-.alpha.-nitrate,HXWLJBVVXXBZCM-UHFFFAOYSA-N,C(C(CO[N+](=O)[O-])O)O,027321-61-5,0.47789144,O=[N+]([O-])OCC(O)CO
487,B-2426,KTU 3616 (AR enantiomer),RXDMAYSSBPYBFW-RULNRJAQSA-N,CC[C@]1([C@H](C1(Cl)Cl)C)C(=O)N[C@H](C)C2=CC=C(C=C2)Cl,127640-90-8,-5.269357255,CCC1(C(=O)NC(C)c2ccc(Cl)cc2)C(C)C1(Cl)Cl
488,B-2431,2-AMINO-5-NITROBENZOIC ACID,RUCHWTKMOWXHLU-UHFFFAOYSA-N,C1=CC(=C(C=C1[N+](=O)[O-])C(=O)O)N,000616-79-5,-2.260405332,Nc1ccc([N+](=O)[O-])cc1C(=O)O
489,B-2441,2H-1-Benzopyran-2-one. 6-hydroxy-4-methyl-,IRUHWRSITUYICV-UHFFFAOYSA-N,CC1=CC(=O)OC2=C1C=C(C=C2)O,002373-31-1,-2.370870691,Cc1cc(=O)oc2ccc(O)cc12
490,B-2444,9H-PURIN-6-AMINE. 9-(PHENYLMETHYL)-,MRHCSNNEUHXNIC-UHFFFAOYSA-N,C1=CC=C(C=C1)CN2C=NC3=C(N=CN=C32)N,004261-14-7,-2.709212123,Nc1ncnc2c1ncn2Cc1ccccc1
491,B-2446,Thioimidodicarbonic diamide,JIRRNZWTWJGJCT-UHFFFAOYSA-N,C(=NC(=N)S)(N)S,000541-53-7,-1.699612927,N=C(S)N=C(N)S
492,B-2451,TRIBUTYRIN,UYXTWWCETRIEDR-UHFFFAOYSA-N,CCCC(=O)OCC(COC(=O)CCC)OC(=O)CCC,000060-01-5,-3.356687059,CCCC(=O)OCC(COC(=O)CCC)OC(=O)CCC
493,B-2464,DIETHYLENE GLYCOL DIBENZOATE,NXQMCAOPTPLPRL-UHFFFAOYSA-N,C1=CC=C(C=C1)C(=O)OCCOCCOC(=O)C2=CC=CC=C2,000120-55-8,-3.914200875,O=C(OCCOCCOC(=O)c1ccccc1)c1ccccc1
494,B-2473,2H-1-Benzopyran-3-carboxylic acid. 2-oxo-. ethyl,XKHPEMKBJGUYCM-UHFFFAOYSA-N,CCOC(=O)C1=CC2=CC=CC=C2OC1=O,001846-76-0,-3.338874649,CCOC(=O)c1cc2ccccc2oc1=O
495,B-2484,HALOXYFOP,GOCUAJYOYBLQRH-UHFFFAOYSA-N,CC(C(=O)O)OC1=CC=C(C=C1)OC2=C(C=C(C=N2)C(F)(F)F)Cl,069806-34-4,-3.920870786,CC(Oc1ccc(Oc2ncc(C(F)(F)F)cc2Cl)cc1)C(=O)O
496,B-2485,4.6-Dihydroxypryimidine,DUFGYCAXVIUXIP-UHFFFAOYSA-N,C1=C(N=CNC1=O)O,001193-24-4,-1.65162686,O=c1cc(O)nc[nH]1
497,B-2501,N-PHENYL-2.5-IMIDAZOLIDIONE,RUEGAVIENIPHGK-UHFFFAOYSA-N,C1C(=O)N(C(=O)N1)C2=CC=CC=C2,002221-13-8,-1.267319657,O=C1CNC(=O)N1c1ccccc1
498,B-2504,Hexanamide. N-(aminocarbonyl)-2-ethyl-,IRTQLVGUDJYPSF-UHFFFAOYSA-N,CCCCC(CC)C(=O)NC(=O)N,058850-93-4,-2.668059607,CCCCC(CC)C(=O)NC(N)=O
499,B-2505,Flavoxate,SPIUTQOUKAMGCX-UHFFFAOYSA-N,CC1=C(OC2=C(C1=O)C=CC=C2C(=O)OCCN3CCCCC3)C4=CC=CC=C4,015301-69-6,-4.592698486,Cc1c(-c2ccccc2)oc2c(C(=O)OCCN3CCCCC3)cccc2c1=O
500,B-2506,BENZOIC ACID. 2-(ACETYLOXY)-. (1-OXOBUTOXY)METHY,GACFJCOPFMBYKV-UHFFFAOYSA-N,CCCC(=O)OCOC(=O)C1=CC=CC=C1OC(=O)C,118247-07-7,-2.903524064,CCCC(=O)OCOC(=O)c1ccccc1OC(C)=O
501,B-2518,AMITROLE,KLSJWNVTNUYHDU-UHFFFAOYSA-N,C1=NNC(=N1)N,000061-82-5,0.522465328,Nc1ncn[nH]1
502,B-2519,Acetamide. N-(4-chlorophenyl)-2-cyano-,FLLVVAHFEBGZKD-UHFFFAOYSA-N,C1=CC(=CC=C1NC(=O)CC#N)Cl,017722-17-7,-3.289187468,N#CCC(=O)Nc1ccc(Cl)cc1
503,B-2533,TRIXYLYL PHOSPHATE,LLPMAOBOEQFPRE-UHFFFAOYSA-N,CC1=CC(=CC(=C1)OP(=O)(OC2=CC(=CC(=C2)C)C)OC3=CC(=CC(=C3)C)C)C,025155-23-1,-5.663870253,Cc1cc(C)cc(OP(=O)(Oc2cc(C)cc(C)c2)Oc2cc(C)cc(C)c2)c1
504,B-2557,BIS(2-ETHYLHEXYL)PHOSPHATE,SEGLCEQVOFDUPX-UHFFFAOYSA-N,CCCCC(CC)COP(=O)(O)OCC(CC)CCCC,000298-07-7,-3.248364055,CCCCC(CC)COP(=O)(O)OCC(CC)CCCC
505,B-2559,Tri-n-butyl Citrate,ZFOZVQLOBQUTQQ-UHFFFAOYSA-N,CCCCOC(=O)CC(CC(=O)OCCCC)(C(=O)OCCCC)O,000077-94-1,-3.653755043,CCCCOC(=O)CC(O)(CC(=O)OCCCC)C(=O)OCCCC
506,B-2563,BENZENAMINE. 2-[(4-AMINOPHENYL)SULFONYL]-,BYVOGVXITRNMSF-UHFFFAOYSA-N,S(=O)(=O)(C2C(N)CCCC2)C1CCC(N)CC1,027147-69-9,-3.104942108,NC1CCC(S(=O)(=O)C2CCCCC2N)CC1
507,B-2572,1.3-Propanediol. 2-(hydroxymethyl)-2-methyl-,QXJQHYBHAIHNGG-UHFFFAOYSA-N,CC(CO)(CO)CO,000077-85-0,-0.933595739,CC(CO)(CO)CO
508,B-2579,Ethanamine. N-(2.2-diethoxyethyl)-2.2-diethoxy-N,CLLVHWHUSNPTPA-UHFFFAOYSA-N,CCOC(CN(CC(OCC)OCC)N=O)OCC,067856-67-1,-1.605742135,CCOC(CN(CC(OCC)OCC)N=O)OCC
509,B-2580,Sethoxydim,NMHGOXYVOKDNHF-NBVRZTHBSA-N,CCC/C(=N\OCC)/C1C(=O)CC(CC1=O)CC(C)SCC,074051-80-2,-4.117258035,CCCC(=NOCC)C1C(=O)CC(CC(C)SCC)CC1=O
510,B-2582,Benzoic acid. 2-hydroxy-5-(phenylazo)-,JHDYSXXPQIFFJZ-UHFFFAOYSA-N,OC(=O)C1=C(O)C=CC(=C1)N=NC1=CC=CC=C1,003147-53-3,-3.055866254,O=C(O)c1cc(N=Nc2ccccc2)ccc1O
511,B-2586,Pyraclostrobin,HZRSNVGNWUDEFX-UHFFFAOYSA-N,COC(=O)N(C1=CC=CC=C1COC2=NN(C=C2)C3=CC=C(C=C3)Cl)OC,175013-18-0,-5.309887799,COC(=O)N(OC)c1ccccc1COc1ccn(-c2ccc(Cl)cc2)n1
512,B-2591,Dinotefuran,YKBZOVFACRVRJN-UHFFFAOYSA-N,CN=C(NCC1CCOC1)N[N+](=O)[O-],165252-70-0,-0.5710028,CN=C(NCC1CCOC1)N[N+](=O)[O-]
513,B-2594,3H-Naphtho[2.1-b]pyran-1-acetic acid. 3-oxo-,IAOKPZIEZYJMKM-UHFFFAOYSA-N,C3(C2C(OC(=O)C=3)CCC1C2CCCC1)CC(=O)O,033739-01-4,-3.174794958,O=C(O)CC1=CC(=O)OC2CCC3CCCCC3C12
514,B-2596,Tralkoxydim,MPMZGPJXNLUICZ-ZETCQYMHSA-N,C1=CC(=C(C=C1C[C@@H](C(=O)O)N)I)N=[N+]=[N-],087820-88-0,-4.818806325,[N-]=[N+]=Nc1ccc(CC(N)C(=O)O)cc1I
515,B-2602,3.4-DINITROPHENOL,AKLOLDQYWQAREW-UHFFFAOYSA-N,C1=CC(=C(C=C1O)[N+](=O)[O-])[N+](=O)[O-],000577-71-9,-0.483322003,O=[N+]([O-])c1ccc(O)cc1[N+](=O)[O-]
516,B-2609,QUINALIZARIN,VBHKTXLEJZIDJF-UHFFFAOYSA-N,C1=CC(=C(C2=C1C(=O)C3=C(C=CC(=C3C2=O)O)O)O)O,000081-61-8,-5.023300324,O=C1c2ccc(O)c(O)c2C(=O)c2c(O)ccc(O)c21
517,B-2612,Clothianidin,PGOOBECODWQEAB-UHFFFAOYSA-N,CN=C(NCC1=CN=C(S1)Cl)N[N+](=O)[O-],210880-92-5,-2.882836003,CN=C(NCc1cnc(Cl)s1)N[N+](=O)[O-]
518,B-2613,N1-PHENYLSULFANILIDE,YBUXKQSCKVQATK-UHFFFAOYSA-N,C2(CCC(CC2)S(=O)(=O)NC1CCCCC1)N,000127-77-5,-1.54987868,NC1CCC(S(=O)(=O)NC2CCCCC2)CC1
519,B-2618,PYRIMETHAMINE,WKSAUQYGYAYLPV-UHFFFAOYSA-N,N2C(NC(C(C2N)C1CCC(CC1)Cl)CC)N,000058-14-0,-4.395710709,CCC1NC(N)NC(N)C1C1CCC(Cl)CC1
520,B-2634,MEBENDAZOLE,OPXLLQIJSORQAM-UHFFFAOYSA-N,COC(=O)NC1=NC2=C(N1)C=C(C=C2)C(=O)C3=CC=CC=C3,031431-39-7,-3.617173917,COC(=O)Nc1nc2ccc(C(=O)c3ccccc3)cc2[nH]1
521,B-2637,6-Aminopenicillanic Acid,NGHVIOIJCVXTGV-ALEPSDHESA-N,CC1([C@@H](N2[C@H](S1)[C@@H](C2=O)N)C(=O)O)C,000551-16-6,-1.949369925,CC1(C)SC2C(N)C(=O)N2C1C(=O)O
522,B-2646,Triethylene glycol di(2-ethylhexoate),FRQDZJMEHSJOPU-UHFFFAOYSA-N,CCCCC(CC)C(=O)OCCOCCOCCOC(=O)C(CC)CCCC,000094-28-0,-5.420160765,CCCCC(CC)C(=O)OCCOCCOCCOC(=O)C(CC)CCCC
523,B-2650,ethyl 2-(1.3-dimethyl-2.6-dioxopurin-7-yl)acetate,JFECZQLAMOOGJL-UHFFFAOYSA-N,CCOC(=O)CN1C=NC2=C1C(=O)N(C(=O)N2C)C,007029-96-1,-1.538815202,CCOC(=O)Cn1cnc2c1c(=O)n(C)c(=O)n2C
524,B-2652,Aminopyralid,NIXXQNOQHKNPEJ-UHFFFAOYSA-N,C1=C(C(=C(N=C1Cl)C(=O)O)Cl)N,150114-71-9,-1.921560623,Nc1cc(Cl)nc(C(=O)O)c1Cl
525,B-2660,cyclohexane-1.4-dicarboxylic acid,PXGZQGDTEZPERC-UHFFFAOYSA-N,C1CC(CCC1C(=O)O)C(=O)O,000619-82-9,-2.332892716,O=C(O)C1CCC(C(=O)O)CC1
526,B-2661,PHTHALONIC ACID,LFLOMAIEONDOLV-UHFFFAOYSA-N,C1=CC=C(C(=C1)C(=O)C(=O)O)C(=O)O,000528-46-1,0.520770842,O=C(O)C(=O)c1ccccc1C(=O)O
527,B-2672,Benzenesulfonic_acid._3-amino-4-methyl-,DTNODBHGOLWROS-UHFFFAOYSA-N,CC1=C(C=C(C=C1)S(=O)(=O)O)N,000618-03-1,-1.031779795,Cc1ccc(S(=O)(=O)O)cc1N
528,B-2677,Cyazofamid,YXKMMRDKEKCERS-UHFFFAOYSA-N,CC1=CC=C(C=C1)C2=C(N=C(N2S(=O)(=O)N(C)C)C#N)Cl,120116-88-3,-6.482218872,Cc1ccc(-c2c(Cl)nc(C#N)n2S(=O)(=O)N(C)C)cc1
529,B-2679,LORAZEPAM,DIWRORZWFLOCLC-OAHLLOKOSA-N,ClC1CCC2C(C1)C(=N[C@@H](C(=O)N2)O)C1CCCCC1Cl,000846-49-1,-3.603631462,O=C1NC2CCC(Cl)CC2C(C2CCCCC2Cl)=NC1O
530,B-2681,Acetamide. N-(3-chlorophenyl)-2-cyano-,JHGKLDZJAHYJIP-UHFFFAOYSA-N,C1=CC(=CC(=C1)Cl)NC(=O)CC#N,017722-12-2,-2.626429637,N#CCC(=O)Nc1cccc(Cl)c1
531,B-2686,Benzoylamino-phenyl-acetic acid,ACDLFRQZDTZESK-ZDUSSCGKSA-N,C1=CC=C(C=C1)[C@@H](C(=O)O)NC(=O)C2=CC=CC=C2,007352-07-0,-2.245648789,O=C(NC(C(=O)O)c1ccccc1)c1ccccc1
532,B-2695,O-ANILINESULFONIC_ACID,ZMCHBSMFKQYNKA-UHFFFAOYSA-N,C1=CC=C(C(=C1)N)S(=O)(=O)O,000088-21-1,-1.213216947,Nc1ccccc1S(=O)(=O)O
533,B-2715,Benzoic acid. 2-[(carboxycarbonyl)amino]-,QBYNNSFEMMNINN-UHFFFAOYSA-N,C1=CC=C(C(=C1)C(=O)O)NC(=O)C(=O)O,005651-01-4,-2.27126061,O=C(O)C(=O)Nc1ccccc1C(=O)O
534,B-2716,Benzenesulfonamide. 4-amino-N-methyl-N-2-thiazol,MLDZWLVATHRXRZ-UHFFFAOYSA-N,CN(C1=NC=CS1)S(=O)(=O)C2=CC=C(C=C2)N,051203-19-1,-2.674426,CN(c1nccs1)S(=O)(=O)c1ccc(N)cc1
535,B-2718,2-Heptenedioic acid. 4-oxo-,GUDPJVGXMNOZGQ-HNQUOIGGSA-N,OC(=O)CCC(=O)\C=C\C(O)=O,000502-51-2,-1.758760544,O=C(O)C=CC(=O)CCC(=O)O
536,B-2720,XANTHINE,LRFVTYWOQMYALW-UHFFFAOYSA-N,C1=NC2=C(N1)C(=O)NC(=O)N2,000069-89-6,-3.343308676,O=c1[nH]c(=O)c2[nH]cnc2[nH]1
537,B-2725,N1-METHYL-N1-(2-PYRIDYL)SULFANILAMIDE,ACAMQRYSXWCCIF-UHFFFAOYSA-N,CN(C1=CC=CC=N1)S(=O)(=O)C2=CC=C(C=C2)N,051543-29-4,-2.286944938,CN(c1ccccn1)S(=O)(=O)c1ccc(N)cc1
538,B-2731,SUCCINAMIDE,SNCZNSNPXMPCGN-UHFFFAOYSA-N,C(CC(=O)N)C(=O)N,000110-14-5,-1.546393087,NC(=O)CCC(N)=O
539,B-2741,1.3.7-TRIMETHYL URIC ACID,BYXCFUMGEBZDDI-UHFFFAOYSA-N,CN1C2=C(NC1=O)N(C(=O)N(C2=O)C)C,005415-44-1,-1.582249361,Cn1c(=O)c2c([nH]c(=O)n2C)n(C)c1=O
540,B-2743,4-[(4-chloro-3.5-dimethylphenoxy)methyl]-2-(3.4-dimethoxyphenyl)-1.3-dioxolan-2-ol,COZRYDWWARSBAZ-UHFFFAOYSA-N,CC1=CC(=CC(=C1Cl)C)OCC2COC(O2)(C3=CC(=C(C=C3)OC)OC)O,065267-26-7,-4.69881605,COc1ccc(C2(O)OCC(COc3cc(C)c(Cl)c(C)c3)O2)cc1OC
541,B-2745,Benzamide. 3.4.5-trihydroxy-N-phenyl-,HLVGXGQCLASQJU-UHFFFAOYSA-N,O=C(C2CC(C(C(C2)O)O)O)NC1CCCCC1,006262-27-7,-2.088561312,O=C(NC1CCCCC1)C1CC(O)C(O)C(O)C1
542,B-2747,Chlorantraniliprole,PSOVNZZNOMJUBI-UHFFFAOYSA-N,CC1=CC(=CC(=C1NC(=O)C2=CC(=NN2C3=C(C=CC=N3)Cl)Br)C(=O)NC)Cl,500008-45-7,-5.706358379,CNC(=O)c1cc(Cl)cc(C)c1NC(=O)c1cc(Br)nn1-c1ncccc1Cl
543,B-2748,BAS-480F,ZMYFCFLJBGAQRS-IAGOWNOFSA-N,C1=CC=C(C(=C1)[C@@H]2[C@@](O2)(CN3C=NC=N3)C4=CC=C(C=C4)F)Cl,106325-08-0,-4.696684446,Fc1ccc(C2(Cn3cncn3)OC2c2ccccc2Cl)cc1