,C_ID,Name,InChIKey,SMILES,CAS,LogS,smiles_canon
5482,B-11198,3-[(dibutylamino)methyl]-4.5.6-trihydroxy-3H-2-benzofuran-1-one,UHXNHWOEFZXDCC-UHFFFAOYSA-N,CCCCN(CC1OC(=O)C2C1C(O)C(C(C2)O)O)CCCC,000520-47-8,-1.905499204,CCCCN(CCCC)CC1OC(=O)C2CC(O)C(O)C(O)C12
5483,B-11199,[2-[(4-ethoxyphenyl)carbamoyloxymethyl]-2-methylpentyl] N-(4-ethoxyphenyl)carbamate,CCXTXXIACARUTI-UHFFFAOYSA-N,CCCC(COC(=O)NC1CCC(CC1)OCC)(COC(=O)NC1CCC(CC1)OCC)C,025648-74-2,-1.956383464,CCCC(C)(COC(=O)NC1CCC(OCC)CC1)COC(=O)NC1CCC(OCC)CC1
5484,B-11200,[(8-chloroquinolin-4-yl)methylideneamino]thiourea,QRMUFSMOMPPWPK-GIDUJCDVSA-N,NC(=S)N/N=C/C1CCNC2C1CCCC2Cl,003652-07-1,-3.502681457,NC(=S)NN=CC1CCNC2C(Cl)CCCC12
5485,B-11201,2-[(4-aminobenzoyl)amino]pyridine-3-carboxylic acid,CTZOFCKLLMFZQM-UHFFFAOYSA-N,NC1CCC(CC1)C(=O)NC1NCCCC1C(=O)O,036845-16-6,-2.826022454,NC1CCC(C(=O)NC2NCCCC2C(=O)O)CC1
5486,B-11202,1-[3-[2-hydroxy-3-[4-(3-methoxyphenyl)piperazin-1-yl]propoxy]phenyl]ethanone,MGYKILFGZRQEFK-UHFFFAOYSA-N,COC1CCCC(C1)N1CCN(CC1)CC(COC1CCCC(C1)C(=O)C)O,063716-00-7,-2.875599286,COC1CCCC(N2CCN(CC(O)COC3CCCC(C(C)=O)C3)CC2)C1
5487,B-11205,N-[(5-nitrofuran-2-yl)methylideneamino]oxamide,AJSKOLZKIUMPPG-YCRREMRBSA-N,NC(=O)C(=O)N/N=C/C1CCC(O1)[N+](=O)[O-],003270-71-1,-1.607369555,NC(=O)C(=O)NN=CC1CCC([N+](=O)[O-])O1
5488,B-11206,2-[3-[4-(3-chlorophenyl)piperazin-1-yl]propyl]-5-ethyl-4-[2-(phenoxy)ethyl]-1.2.4-triazol-3-one,VRBKIVRKKCLPHA-UHFFFAOYSA-N,CCC1NN(C(=O)N1CCOC1CCCCC1)CCCN1CCN(CC1)C1CCCC(C1)Cl,083366-66-9,-6.117258369,CCC1NN(CCCN2CCN(C3CCCC(Cl)C3)CC2)C(=O)N1CCOC1CCCCC1
5489,B-11207,[2-(2-sulfonatosulfanylethylazaniumyl)ethylamino]benzene,MKLXZHHTNGKIQR-UHFFFAOYSA-N,OS(=O)(=O)SCCNCCNC1CCCCC1,023563-74-8,-2.024848804,O=S(=O)(O)SCCNCCNC1CCCCC1
5490,B-11209,2-[2-(4-nitrophenyl)-1.3-benzoxazol-5-yl]propanoic acid,YLUWIWDPTZHXQS-UHFFFAOYSA-N,OC(=O)C(C1CCC2C(C1)NC(O2)C1CCC(CC1)[N+](=O)[O-])C,051234-92-5,-4.166165972,CC(C(=O)O)C1CCC2OC(C3CCC([N+](=O)[O-])CC3)NC2C1
5491,B-11210,(E)-3-(3-chloro-4-ethoxyphenyl)-N-hydroxyprop-2-enamide,HSPGJPTZBIXNJN-GQCTYLIASA-N,CCOC1CCC(CC1Cl)/C=C/C(=O)NO,025357-02-2,-3.052810784,CCOC1CCC(C=CC(=O)NO)CC1Cl
5492,B-11211,4.6-dimethyl-2-[5-(2-sulfosulfanylethylamino)pentoxy]quinoline,GKOVMTHKJDWVMC-UHFFFAOYSA-N,CC1CCC2C(C1)C(C)CC(N2)OCCCCCNCCSS(=O)(=O)O,041287-41-6,-4.008290811,CC1CCC2NC(OCCCCCNCCSS(=O)(=O)O)CC(C)C2C1
5493,B-11212,2-(hydroxymethyl)-2-(phenoxymethyl)propane-1.3-diol,PSIRMGCYQXQWBH-UHFFFAOYSA-N,OCC(COC1CCCCC1)(CO)CO,064049-35-0,-1.550863137,OCC(CO)(CO)COC1CCCCC1
5494,B-11213,2-[5-(2-sulfosulfanylethylamino)pentoxy]-4-(trifluoromethyl)quinoline,RWWBYAZXVYCRQA-UHFFFAOYSA-N,OS(=O)(=O)SCCNCCCCCOC1NC2CCCCC2C(C1)C(F)(F)F,041287-34-7,-4.187104939,O=S(=O)(O)SCCNCCCCCOC1CC(C(F)(F)F)C2CCCCC2N1
5495,B-11214,4-oxo-7-(trifluoromethyl)-1H-quinoline-3-carboxylic acid,BIRIVPOTERXIOW-UHFFFAOYSA-N,OC(=O)C1C[NH]C2C(C1=O)CCC(C2)C(F)(F)F,051776-97-7,-3.943349307,O=C(O)C1CNC2CC(C(F)(F)F)CCC2C1=O
5496,B-11215,2-[2-oxo-2-[3-(trifluoromethyl)phenyl]ethyl]benzoic acid,RPBXZQUBVUVVET-UHFFFAOYSA-N,O=C(C1CCCC(C1)C(F)(F)F)CC1CCCCC1C(=O)O,050439-12-8,-4.764635683,O=C(CC1CCCCC1C(=O)O)C1CCCC(C(F)(F)F)C1
5497,B-11216,2-Iodosylbenzoic acid,IFPHDUVGLXEIOQ-UHFFFAOYSA-N,O=[I]C1CCCCC1C(=O)O,027323-35-9,0.511853735,O=IC1CCCCC1C(=O)O
5498,B-11217,1-[3-cyano-3.3-di(phenyl)propyl]-4-phenylpiperidine-4-carboxylic acid,UFIVBRCCIRTJTN-UHFFFAOYSA-N,N#CC(C1CCCCC1)(C1CCCCC1)CCN1CCC(CC1)(C(=O)O)C1CCCCC1,028782-42-5,-6.331696431,N#CC(CCN1CCC(C(=O)O)(C2CCCCC2)CC1)(C1CCCCC1)C1CCCCC1
5499,B-11218,propan-2-yl 2-[2-hydroxy-3-[4-(2-hydroxyethyl)piperazin-1-yl]propoxy]-6-methyl-3-propan-2-ylbenzoate,HFJKKNWEJFPBRG-UHFFFAOYSA-N,OCCN1CCN(CC1)CC(COC1C(CCC(C1C(=O)OC(C)C)C)C(C)C)O,053335-15-2,-4.264166725,CC(C)OC(=O)C1C(C)CCC(C(C)C)C1OCC(O)CN1CCN(CCO)CC1
5500,B-11219,6-chloro-4-methyl-2-[5-(2-sulfosulfanylethylamino)pentoxy]quinoline,HKIZCIYTMMHSCB-UHFFFAOYSA-N,ClC1CCC2C(C1)C(C)CC(N2)OCCCCCNCCSS(=O)(=O)O,041287-35-8,-4.240146178,CC1CC(OCCCCCNCCSS(=O)(=O)O)NC2CCC(Cl)CC12
5501,B-11220,(11bS)-2-[[(1R)-6.7-dimethoxy-1.2.3.4-tetrahydroisoquinolin-1-yl]methyl]-3-ethyl-9.10-dimethoxy-4.6.7.11b-tetrahydro-1H-pyrido[2.1-a]isoquinoline,XXLZPUYGHQWHRN-RPBOFIJWSA-N,CCC1=C(C[C@H]2NCCC3C2CC(OC)C(C3)OC)C[C@@H]2N(C1)CCC1C2CC(C(C1)OC)OC,004914-30-1,-5.645775378,CCC1=C(CC2NCCC3CC(OC)C(OC)CC32)CC2C3CC(OC)C(OC)CC3CCN2C1
5502,B-11221,9-[4-(4-fluorophenyl)-4-oxobutyl]-1-oxa-3.9-diazaspiro[5.5]undecan-2-one,BMTLAPIIHHSIFJ-UHFFFAOYSA-N,O=C1NCCC2(O1)CCN(CC2)CCCC(=O)C1CCC(CC1)F,054981-15-6,-3.032892873,O=C1NCCC2(CCN(CCCC(=O)C3CCC(F)CC3)CC2)O1
5503,B-11222,N-[4-(2.3-dihydroxypropoxy)phenyl]acetamide,GRAOWBQCLZIQIW-UHFFFAOYSA-N,OCC(COC1CCC(CC1)NC(=O)C)O,057064-98-9,-0.814834136,CC(=O)NC1CCC(OCC(O)CO)CC1
5504,B-11223,1-[3-(2-hydroxy-3-morpholin-4-ylpropoxy)phenyl]ethanone,YCYZCHCSBKTMDT-UHFFFAOYSA-N,OC(CN1CCOCC1)COC1CCCC(C1)C(=O)C,063990-82-9,-0.244729786,CC(=O)C1CCCC(OCC(O)CN2CCOCC2)C1
5505,B-11224,4-[1-hydroxy-2-[1-(4-methoxyphenyl)propan-2-ylamino]ethyl]-2-(hydroxymethyl)phenol,VPMWDFRZSIMDKW-UHFFFAOYSA-N,COC1CCC(CC1)CC(NCC(C1CCC(C(C1)CO)O)O)C,018910-65-1,-1.522108878,COC1CCC(CC(C)NCC(O)C2CCC(O)C(CO)C2)CC1
5506,B-11226,5-[(1R.2S.4R.5R.6R.7R.10S.11S.14S.16R)-5.14-dihydroxy-7.11-dimethyl-3-oxapentacyclo[8.8.0.02.4.02.7.011.16]octadecan-6-yl]pyran-2-one,IXZHDDUFQVXHIL-UOAIQHMYSA-N,O[C@H]1CC[C@]2([C@@H](C1)CC[C@@H]1[C@@H]2CC[C@]2([C@]31O[C@@H]3[C@@H]([C@@H]2C1CCC(=O)OC1)O)C)C,004026-95-3,-4.469079888,CC12CCC(O)CC1CCC1C2CCC2(C)C(C3CCC(=O)OC3)C(O)C3OC132
5507,B-11227,1-methoxy-4-[4-(2-sulfosulfanylpropylamino)butyl]benzene,WJUXSWORFADQNG-UHFFFAOYSA-N,COC1CCC(CC1)CCCCNCC(SS(=O)(=O)O)C,038914-75-9,-2.489621293,COC1CCC(CCCCNCC(C)SS(=O)(=O)O)CC1
5508,B-11228,1-[(4-fluorophenyl)methyl]-N-[1-[2-(4-methoxyphenyl)ethyl]piperidin-4-yl]benzimidazol-2-amine,GXDALQBWZGODGZ-UHFFFAOYSA-N,COC1CCC(CC1)CCN1CCC(CC1)NC1NC2C(N1CC1CCC(CC1)F)CCCC2,068844-77-9,-7.224141251,COC1CCC(CCN2CCC(NC3NC4CCCCC4N3CC3CCC(F)CC3)CC2)CC1
5509,B-11230,2-(3-methyl-2-phenyl-2H-1.3-benzothiazol-5-yl)acetic acid,OCGNHCSQAXMFEA-UHFFFAOYSA-N,OC(=O)CC1CCC2C(C1)N(C)C(S2)C1CCCCC1,052321-51-4,-4.219866156,CN1C2CC(CC(=O)O)CCC2SC1C1CCCCC1
5510,B-11231,6-[2-(5-nitrofuran-2-yl)ethenyl]pyridazin-3-amine,XDWLRMBWIWKFNC-HNQUOIGGSA-N,NC1CCC(NN1)/C=C/C1CCC(O1)[N+](=O)[O-],001614-20-6,-2.64943963,NC1CCC(C=CC2CCC([N+](=O)[O-])O2)NN1
5511,B-11232,[(1R.9R.10R)-17-prop-2-enyl-17-azatetracyclo[7.5.3.01.10.02.7]heptadeca-2(7).3.5-trien-4-yl] dihydrogen phosphate,WEZYGLVLIQZWQM-QXAKKESOSA-N,C=CCN1CC[C@@]23[C@H]([C@H]1CC1C3CC(CC1)OP(=O)(O)O)CCCC2,063732-41-2,-4.081811269,C=CCN1CCC23CCCCC2C1CC1CCC(OP(=O)(O)O)CC13
5512,B-11233,2-(4-butylsulfanylphenyl)-N-hydroxyacetamide,PWCXFVBAQLRQEN-UHFFFAOYSA-N,CCCCSC1CCC(CC1)CC(=O)NO,002385-93-5,-3.077972571,CCCCSC1CCC(CC(=O)NO)CC1
5513,B-11234,4-hydroxy-N-[(5-nitrofuran-2-yl)methylideneamino]benzamide,YCWSUKQGVSGXJO-NTUHNPAUSA-N,OC1CCC(CC1)C(=O)N/N=C/C1CCC(O1)[N+](=O)[O-],000965-52-6,-3.655633575,O=C(NN=CC1CCC([N+](=O)[O-])O1)C1CCC(O)CC1
5514,B-11235,7-chloro-5-(2-chlorophenyl)-3-hydroxy-1.3-dihydropyrido[2.3-f][1.4]diazepin-2-one,JEJOFYTVMFVKQA-UHFFFAOYSA-N,ClC1CCC2C(N1)C(=NC(C(=O)N2)O)C1CCCCC1Cl,042863-81-0,-3.070300819,O=C1NC2CCC(Cl)NC2C(C2CCCCC2Cl)=NC1O
5515,B-11236,3-(bis(2-chloropropyl)amino)-4-methylbenzoic acid,JHKAMWMWNMZLLS-UHFFFAOYSA-N,CC(CN(C1CC(CCC1C)C(=O)O)CC(Cl)C)Cl,054941-23-0,-5.624637716,CC(Cl)CN(CC(C)Cl)C1CC(C(=O)O)CCC1C
5516,B-11237,N-methyl-2-[(2-morpholin-4-ylacetyl)amino]-N-phenylbenzamide,RMAAHPVCLURWMW-UHFFFAOYSA-N,O=C(NC1CCCCC1C(=O)N(C1CCCCC1)C)CN1CCOCC1,055707-68-1,-3.290615005,CN(C(=O)C1CCCCC1NC(=O)CN1CCOCC1)C1CCCCC1
5517,B-11239,N-(acetylcarbamoyl)-2-phenylbutanamide,GBPZSCQLDXUGNO-UHFFFAOYSA-N,CCC(C1CCCCC1)C(=O)NC(=O)NC(=O)C,013402-08-9,-2.67354686,CCC(C(=O)NC(=O)NC(C)=O)C1CCCCC1
5518,B-11240,2-(3-bromo-4-butoxyphenyl)-N-hydroxyacetamide,LOKRZPSRQFVRBE-UHFFFAOYSA-N,CCCCOC1CCC(CC1Br)CC(=O)NO,015560-64-2,-3.850838871,CCCCOC1CCC(CC(=O)NO)CC1Br
5519,B-11241,N-hydroxy-2-(4-prop-2-enoxyphenyl)acetamide,YVHMVAPVYRFIOA-UHFFFAOYSA-N,C=CCOC1CCC(CC1)CC(=O)NO,014794-61-7,-1.864664096,C=CCOC1CCC(CC(=O)NO)CC1
5520,B-11242,5-nitro-N-[[(E)-3-(5-nitrofuran-2-yl)prop-2-enylidene]amino]thiophene-2-carboxamide,IDUMOVRJNBNOTR-BIZLIJPVSA-N,O=C(C1CCC(S1)[N+](=O)[O-])N/N=C/C=C/C1CCC(O1)[N+](=O)[O-],039978-42-2,-5.08327902,O=C(NN=CC=CC1CCC([N+](=O)[O-])O1)C1CCC([N+](=O)[O-])S1
5521,B-11243,2-(5-ethyl-2-nitroimidazol-1-yl)-N-methylacetamide,FCVKJABRPBJPHG-UHFFFAOYSA-N,CNC(=O)CN1C(CC)CNC1[N+](=O)[O-],023571-58-6,-1.611596441,CCC1CNC([N+](=O)[O-])N1CC(=O)NC
5522,B-11244,1-[3-[2-hydroxy-3-(4-phenylpiperazin-1-yl)propoxy]phenyl]ethanone,FDTSYVCHZCQUMG-UHFFFAOYSA-N,OC(CN1CCN(CC1)C1CCCCC1)COC1CCCC(C1)C(=O)C,042585-59-1,-2.588133899,CC(=O)C1CCCC(OCC(O)CN2CCN(C3CCCCC3)CC2)C1
5523,B-11245,1-[4-(2.3-dihydroxypropoxy)phenyl]butan-1-one,OJSIHOCBTHOQJA-UHFFFAOYSA-N,CCCC(=O)C1CCC(CC1)OCC(CO)O,063834-66-2,-2.237213973,CCCC(=O)C1CCC(OCC(O)CO)CC1
5524,B-11246,4-(bis(3-methylbut-2-enyl)amino)-2-naphthalen-1-ylbutanamide,OLGVYMCHLGYBAQ-UHFFFAOYSA-N,CC(=CCN(CC=C(C)C)CCC(C1CCCC2C1CCCC2)C(=O)N)C,050765-93-0,-6.508658395,CC(C)=CCN(CC=C(C)C)CCC(C(N)=O)C1CCCC2CCCCC21
5525,B-11247,2-(2-hydroxyethoxy)-3-phenylbenzamide,OLMLXLYLTJSOSI-UHFFFAOYSA-N,OCCOC1C(CCCC1C(=O)N)C1CCCCC1,063906-82-1,-1.993780712,NC(=O)C1CCCC(C2CCCCC2)C1OCCO
5526,B-11248,5-chloro-2-[6-(2-sulfosulfanylethylamino)hexoxy]pyridine,GZMFYOQJALCSLS-UHFFFAOYSA-N,ClC1CCC(NC1)OCCCCCCNCCSS(=O)(=O)O,041287-14-3,-2.685513391,O=S(=O)(O)SCCNCCCCCCOC1CCC(Cl)CN1
5527,B-11249,methyl 2-[2-hydroxy-3-(4-methylpiperazin-1-yl)propoxy]-6-methyl-3-propan-2-ylbenzoate,XILVKGHOXYREOY-UHFFFAOYSA-N,COC(=O)C1C(C)CCC(C1OCC(CN1CCN(CC1)C)O)C(C)C,053206-85-2,-2.98418904,COC(=O)C1C(C)CCC(C(C)C)C1OCC(O)CN1CCN(C)CC1
5528,B-11250,1-[2-(2.3-dihydroxypropoxy)phenyl]propan-1-one,KLFOHIJBCWYYDM-UHFFFAOYSA-N,OCC(COC1CCCCC1C(=O)CC)O,001939-72-6,-1.717275616,CCC(=O)C1CCCCC1OCC(O)CO
5529,B-11251,6-(phenylmethylsulfanyl)-7H-purine,ULIQGBPQLPCTAJ-UHFFFAOYSA-N,C1CCC(CC1)CSC1NCNC2C1[NH]CN2,000724-34-5,-4.026418567,C1CCC(CSC2NCNC3NCNC32)CC1
5530,B-11252,3-(1.3-oxazol-2-yl)-1-propylurea,GHDPMHONBNZPGP-UHFFFAOYSA-N,CCCNC(=O)NC1NCCO1,035629-45-9,-1.283876642,CCCNC(=O)NC1NCCO1
5531,B-11254,(2R.3S.4S.5R)-2-(6-aminopurin-9-yl)-5-(hydroxymethyl)oxolane-3.4-diol,OIRDTQYFTABQOQ-UHTZMRCNSA-N,OC[C@H]1O[C@H]([C@H]([C@@H]1O)O)N1CNC2C1NCNC2N,024356-66-9,-1.511615306,NC1NCNC2C1NCN2C1OC(CO)C(O)C1O
5532,B-11255,1-[3-(9-chloro-5.6-dihydrobenzo[b][1]benzazepin-11-yl)propyl]-4-piperidin-1-ylpiperidine-4-carboxamide,QAZKXHSIKKNOHH-UHFFFAOYSA-N,ClC1CCC2C(C1)N(CCCN1CCC(CC1)(C(=O)N)N1CCCCC1)C1CCCCC1CC2,065016-29-7,-7.729425754,NC(=O)C1(N2CCCCC2)CCN(CCCN2C3CCCCC3CCC3CCC(Cl)CC32)CC1
5533,B-11256,(3S.7R)-11-methoxy-6.8.19-trioxapentacyclo[10.7.0.02.9.03.7.013.17]nonadeca-1.4.9.11.13(17)-pentaene-16.18-dione,OQIQSTLJSLGHID-WNWIJWBNSA-N,COC1CC2O[C@@H]3[C@H](C2C2C1C1CCC(=O)C1C(=O)O2)C=CO3,010279-73-9,-3.712784638,COC1CC2OC3OC=CC3C2C2OC(=O)C3C(=O)CCC3C12
5534,B-11257,(2S)-2-amino-3-[4-[bis(2-chloroethyl)amino]phenyl]propanoic acid,SGDBTWWWUNNDEQ-LBPRGKRZSA-N,ClCCN(C1CCC(CC1)C[C@@H](C(=O)O)N)CCCl,1217854-43-7,-3.824857025,NC(CC1CCC(N(CCCl)CCCl)CC1)C(=O)O
5535,B-11258,9-[4-(4-chlorophenyl)-4-oxobutyl]-5-methyl-1-oxa-3.9-diazaspiro[5.5]undecan-2-one,WVEHPOKMRMWSLF-UHFFFAOYSA-N,O=C1NCC(C2(O1)CCN(CC2)CCCC(=O)C1CCC(CC1)Cl)C,054981-20-3,-3.991595217,CC1CNC(=O)OC12CCN(CCCC(=O)C1CCC(Cl)CC1)CC2
5536,B-11259,1-methoxy-4-[(2-sulfosulfanylethylamino)methyl]benzene,YJOXSXGKJMRYKX-UHFFFAOYSA-N,COC1CCC(CC1)CNCCSS(=O)(=O)O,027976-16-5,-0.465309263,COC1CCC(CNCCSS(=O)(=O)O)CC1
5537,B-11260,4-(benzoylamino)-5-(dipropylamino)-5-oxopentanoic acid,DGMKFQYCZXERLX-UHFFFAOYSA-N,CCCN(C(=O)C(NC(=O)C1CCCCC1)CCC(=O)O)CCC,006620-60-6,-3.3806478,CCCN(CCC)C(=O)C(CCC(=O)O)NC(=O)C1CCCCC1
5538,B-11261,1-[4-[2-hydroxy-3-(4-phenylpiperazin-1-yl)propoxy]-3-methylphenyl]ethanone,WMHPFELNGHYGPL-UHFFFAOYSA-N,OC(CN1CCN(CC1)C1CCCCC1)COC1CCC(CC1C)C(=O)C,063990-50-1,-3.158170408,CC(=O)C1CCC(OCC(O)CN2CCN(C3CCCCC3)CC2)C(C)C1
5539,B-11262,3.4-dimethoxy-N-[2-(2-phenylethyl)-3.4-dihydro-1H-isoquinolin-5-yl]benzamide,INOCOTXEWBJWKF-UHFFFAOYSA-N,COC1CCC(CC1OC)C(=O)NC1CCCC2C1CCN(C2)CCC1CCCCC1,041957-49-7,-5.41551692,COC1CCC(C(=O)NC2CCCC3CN(CCC4CCCCC4)CCC32)CC1OC
5540,B-11263,1-(2.3-dihydroxypropyl)-3.7-dimethylpurine-2.6-dione,RRBSZTYIWIHPST-UHFFFAOYSA-N,OCC(CN1C(=O)C2N(C)CNC2N(C1=O)C)O,013460-96-3,-1.11969682,CN1CNC2C1C(=O)N(CC(O)CO)C(=O)N2C
5541,B-11264,3-[2-hydroxy-3-[4-(3-methoxyphenyl)piperazin-1-yl]propoxy]benzaldehyde,PZCDSVSZCJTGDJ-UHFFFAOYSA-N,COC1CCCC(C1)N1CCN(CC1)CC(COC1CCCC(C1)C=O)O,063716-13-2,-2.804552306,COC1CCCC(N2CCN(CC(O)COC3CCCC(C=O)C3)CC2)C1
5542,B-11265,ethyl 2-[3-[(Z)-(5-nitrofuran-2-yl)methylideneamino]-2.5-dioxoimidazolidin-1-yl]acetate,XANUSFXLDREZGY-ACAGNQJTSA-N,[O-][N+](=O)C1CCC(O1)/C=N\N1CC(=O)N(C1=O)CC(=O)OCC,001749-93-5,-2.446420643,CCOC(=O)CN1C(=O)CN(N=CC2CCC([N+](=O)[O-])O2)C1=O
5543,B-11266,3-amino-N-(5-chloropyrimidin-2-yl)benzenesulfonamide,HWRUOPCDGPXWRR-UHFFFAOYSA-N,ClC1CNC(NC1)NS(=O)(=O)C1CCCC(C1)N,000565-36-6,-1.538487697,NC1CCCC(S(=O)(=O)NC2NCC(Cl)CN2)C1
5544,B-11269,(E)-1-(2-hydroxyphenyl)-3-(4-hydroxyphenyl)prop-2-en-1-one,FGPJTMCJNPRZGF-JXMROGBWSA-N,OC1CCC(CC1)/C=C/C(=O)C1CCCCC1O,013323-66-5,-3.339285172,O=C(C=CC1CCC(O)CC1)C1CCCCC1O
5545,B-11270,3.5-dimethyl-N'-nitropyrazole-1-carboximidamide,YJQYMUPERFRTJO-UHFFFAOYSA-N,[O-][N+](=O)/N=C(/N1NC(CC1C)C)\N,002946-89-6,-1.064199653,CC1CC(C)N(C(N)=N[N+](=O)[O-])N1
5546,B-11271,[2.4.6-trioxo-5-(1-phenylethyl)-1.3-diazinan-5-yl] propanoate,CLFJVCIWWFEVMI-UHFFFAOYSA-N,CCC(=O)OC1(C(=O)NC(=O)NC1=O)C(C1CCCCC1)C,037431-38-2,-3.863168752,CCC(=O)OC1(C(C)C2CCCCC2)C(=O)NC(=O)NC1=O
5547,B-11272,3.5-dichloro-2-[5-(2-sulfosulfanylethylamino)pentoxy]pyridine,CJECIMVYFNJMEE-UHFFFAOYSA-N,ClC1CNC(C(C1)Cl)OCCCCCNCCSS(=O)(=O)O,040771-32-2,-2.964978646,O=S(=O)(O)SCCNCCCCCOC1NCC(Cl)CC1Cl
5548,B-11275,2-hydroxy-3-methyl-5-(2-phenylbutanoyl)benzoic acid,GQUAGNLRQXBIPW-UHFFFAOYSA-N,CCC(C(=O)C1CC(C)C(C(C1)C(=O)O)O)C1CCCCC1,050439-07-1,-5.205195644,CCC(C(=O)C1CC(C)C(O)C(C(=O)O)C1)C1CCCCC1
5549,B-11276,(4E)-1-[4-(2.3-dihydroxypropoxy)phenyl]-4-hydroxyiminobutan-1-one,XNLGSAWYMBYCPW-VGOFMYFVSA-N,O/N=C/CCC(=O)C1CCC(CC1)OCC(CO)O,064070-74-2,-0.801655653,O=C(CCC=NO)C1CCC(OCC(O)CO)CC1
5550,B-11277,(3-carbamoyloxy-2-methyl-2-phenylpropyl) carbamate,PSVWKKQRXCPWBR-UHFFFAOYSA-N,NC(=O)OCC(C1CCCCC1)(COC(=O)N)C,022131-25-5,-2.079646312,CC(COC(N)=O)(COC(N)=O)C1CCCCC1
5551,B-11279,(4R.4aS.7aR.12bS)-4a-hydroxy-9-methoxy-3-methyl-2.4.5.6.7a.13-hexahydro-1H-4.12-methanobenzofuro[3.2-e]isoquinolin-7-one,BRUQQQPBMZOVGD-XFKAJCMBSA-N,COC1CCC2C3C1O[C@@H]1[C@@]43CCN([C@H](C2)[C@]4(O)CCC1=O)C,000076-42-6,-1.879621271,COC1CCC2CC3N(C)CCC45C(OC1C24)C(=O)CCC35O
5552,B-11280,ethyl 7-chloro-5-(2-fluorophenyl)-2-oxo-1.3-dihydro-1.4-benzodiazepine-3-carboxylate,CUCHJCMWNFEYOM-UHFFFAOYSA-N,CCOC(=O)C1N=C(C2C(NC1=O)CCC(C2)Cl)C1CCCCC1F,029177-84-2,-4.363270247,CCOC(=O)C1N=C(C2CCCCC2F)C2CC(Cl)CCC2NC1=O
5553,B-11281,1-[4-[2-hydroxy-3-(3-methyl-4-phenylpiperazin-1-yl)propoxy]phenyl]propan-1-one,HIHJBUYHDXQAJN-UHFFFAOYSA-N,CCC(=O)C1CCC(CC1)OCC(CN1CCN(C(C1)C)C1CCCCC1)O,036115-92-1,-3.569798756,CCC(=O)C1CCC(OCC(O)CN2CCN(C3CCCCC3)C(C)C2)CC1
5554,B-11282,N-[5-(2-methoxyethoxy)pyrimidin-2-yl]benzenesulfonamide,QFWPJPIVLCBXFJ-UHFFFAOYSA-N,COCCOC1CNC(NC1)NS(=O)(=O)C1CCCCC1,000339-44-6,-1.826264376,COCCOC1CNC(NS(=O)(=O)C2CCCCC2)NC1
5555,B-11283,2-(4-butoxy-3-methoxyphenyl)-N-hydroxyacetamide,QRJCDIVJPRWSMH-UHFFFAOYSA-N,CCCCOC1CCC(CC1OC)CC(=O)NO,015560-61-9,-2.362239076,CCCCOC1CCC(CC(=O)NO)CC1OC
5556,B-11285,1-[4-[2-hydroxy-3-(4-hydroxy-4-phenylpiperidin-1-yl)propoxy]phenyl]propan-1-one,VBQYVPWJXQKIMF-UHFFFAOYSA-N,CCC(=O)C1CCC(CC1)OCC(CN1CCC(CC1)(O)C1CCCCC1)O,063815-49-6,-3.374236775,CCC(=O)C1CCC(OCC(O)CN2CCC(O)(C3CCCCC3)CC2)CC1
5557,B-11286,6-Methyl-1H-pyrimidin-4-one,LHRIUKSRPHFASO-UHFFFAOYSA-N,O=C1NC[NH]C(C1)C,014663-58-2,-0.652684343,CC1CC(=O)NCN1
5558,B-11287,(2S)-3-(3.4-dihydroxyphenyl)-2-hydrazinyl-2-methylpropanoic acid,TZFNLOMSOLWIDK-JTQLQIEISA-N,NN[C@](C(=O)O)(CC1CCC(C(C1)O)O)C,027925-91-3,0.033724848,CC(CC1CCC(O)C(O)C1)(NN)C(=O)O
5559,B-11288,2-(2-hydroxyethoxy)benzamide,AKHALQJNHJAYRL-UHFFFAOYSA-N,OCCOC1CCCCC1C(=O)N,063906-79-6,0.066145857,NC(=O)C1CCCCC1OCCO
5560,B-11289,6-methyl-4-oxo-6.7.8.9-tetrahydropyrido[1.6-a]pyrimidine-3-carboxylic acid,KOXNRJHZWXSKMF-UHFFFAOYSA-N,OC(=O)C1CNC2N(C1=O)C(C)CCC2,032092-24-3,-1.605866483,CC1CCCC2NCC(C(=O)O)C(=O)N12
5561,B-11291,(2R.5'R)-7-chloro-3'.4.6-trimethoxy-5'-methylspiro[1-benzofuran-2.4'-cyclohex-2-ene]-1'.3-dione,DDUHZTYCFQRHIY-CQLKUDPESA-N,COC1=CC(=O)C[C@H]([C@]21OC1C(C2=O)C(OC)CC(C1Cl)OC)C,000469-49-8,-4.6100001,COC1=CC(=O)CC(C)C12OC1C(Cl)C(OC)CC(OC)C1C2=O
5562,B-11292,2-[(4-nitrobenzoyl)amino]pyridine-3-carboxylic acid,AHVZWIOHDYMAPH-UHFFFAOYSA-N,O=C(C1CCC(CC1)[N+](=O)[O-])NC1NCCCC1C(=O)O,036845-15-5,-4.060291286,O=C(NC1NCCCC1C(=O)O)C1CCC([N+](=O)[O-])CC1
5563,B-11293,5-bromo-2-[6-(2-sulfosulfanylethylamino)hexoxy]pyridine,ROAKRDRZFFSRSF-UHFFFAOYSA-N,BrC1CCC(NC1)OCCCCCCNCCSS(=O)(=O)O,041287-13-2,-3.21837268,O=S(=O)(O)SCCNCCCCCCOC1CCC(Br)CN1
5564,B-11294,4-morpholin-4-yl-2-(2-morpholin-4-ylethyl)-2-phenylbutanamide,LFWCBZHUGLQWRZ-UHFFFAOYSA-N,NC(=O)C(C1CCCCC1)(CCN1CCOCC1)CCN1CCOCC1,002969-30-4,-3.177880228,NC(=O)C(CCN1CCOCC1)(CCN1CCOCC1)C1CCCCC1
5565,B-11295,1-methoxy-4-[4-(1-sulfosulfanylpropan-2-ylamino)butyl]benzene,ODCRDIUZBXHSBN-UHFFFAOYSA-N,COC1CCC(CC1)CCCCNC(CSS(=O)(=O)O)C,038914-76-0,-2.489621293,COC1CCC(CCCCNC(C)CSS(=O)(=O)O)CC1
5566,B-11296,6-methyl-2-oxo-5-pyridin-4-yl-1H-pyridine-3-carbonitrile,PZRHRDRVRGEVNW-UHFFFAOYSA-N,N#CC1CC(C2CCNCC2)C([NH]C1=O)C,078415-72-2,-3.989285362,CC1NC(=O)C(C#N)CC1C1CCNCC1
5567,B-11297,2-(2-hydroxyethoxy)-N-methyl-4-phenylbenzamide,OTUQTLCXMLMMOH-UHFFFAOYSA-N,OCCOC1CC(CCC1C(=O)NC)C1CCCCC1,063906-80-9,-2.952032793,CNC(=O)C1CCC(C2CCCCC2)CC1OCCO
5568,B-11298,4-(diethylsulfamoyl)benzoic acid,UACOQEQOBAQRDQ-UHFFFAOYSA-N,CCN(S(=O)(=O)C1CCC(CC1)C(=O)O)CC,001213-06-5,-2.597065714,CCN(CC)S(=O)(=O)C1CCC(C(=O)O)CC1
5569,B-11299,(E)-N-hydroxy-3-(4-methoxy-3-pentoxyphenyl)prop-2-enamide,OHXHEMDRMDVRBI-VQHVLOKHSA-N,CCCCCOC1CC(/C=C/C(=O)NO)CCC1OC,025356-85-8,-3.662223331,CCCCCOC1CC(C=CC(=O)NO)CCC1OC
5570,B-11300,5-ethyl-9-[4-(4-fluorophenyl)-4-oxobutyl]-1-oxa-3.9-diazaspiro[5.5]undecan-2-one,APZVCLYXVHJXNZ-UHFFFAOYSA-N,CCC1CNC(=O)OC21CCN(CC2)CCCC(=O)C1CCC(CC1)F,054981-17-8,-4.013935008,CCC1CNC(=O)OC12CCN(CCCC(=O)C1CCC(F)CC1)CC2
5571,B-11301,phthalazin-1-ylhydrazine,RPTUSVTUFVMDQK-UHFFFAOYSA-N,NNC1NNCC2C1CCCC2,1044569-46-1,-2.599989155,NNC1NNCC2CCCCC21
5572,B-11302,4-[(3.8-dimethyl-5-propan-2-ylazulen-1-yl)amino]-4-oxobutanoic acid,KIBVWPFAMGQHER-UHFFFAOYSA-N,OC(=O)CCC(=O)NC1CC(C2C1C(C)CCC(C2)C(C)C)C,069174-75-0,-5.388884865,CC(C)C1CCC(C)C2C(NC(=O)CCC(=O)O)CC(C)C2C1
5573,B-11303,4-ethoxy-2-[4-[3.3.3-tri(phenyl)propyl]piperazin-1-yl]pyrimidine-5-carboxylic acid,MMDHGCAJSAUDDC-UHFFFAOYSA-N,CCOC1NC(NCC1C(=O)O)N1CCN(CC1)CCC(C1CCCCC1)(C1CCCCC1)C1CCCCC1,036371-61-6,-7.222665777,CCOC1NC(N2CCN(CCC(C3CCCCC3)(C3CCCCC3)C3CCCCC3)CC2)NCC1C(=O)O
5574,B-11304,ethyl 2-[carbamoyl-[(5-nitrofuran-2-yl)methylideneamino]amino]acetate,ONHUPCAVZVIYFY-LFYBBSHMSA-N,[O-][N+](=O)C1CCC(O1)/C=N/N(C(=O)N)CC(=O)OCC,010598-87-5,-2.440829634,CCOC(=O)CN(N=CC1CCC([N+](=O)[O-])O1)C(N)=O
5575,B-11305,1-[3-[2-hydroxy-3-(4-hydroxy-4-phenylpiperidin-1-yl)propoxy]phenyl]ethanone,TWUSOZWGHHLYHF-UHFFFAOYSA-N,OC(CN1CCC(CC1)(O)C1CCCCC1)COC1CCCC(C1)C(=O)C,063990-72-7,-2.853238842,CC(=O)C1CCCC(OCC(O)CN2CCC(O)(C3CCCCC3)CC2)C1
5576,B-11306,2-[2-(4-acetylphenyl)-1.3-benzoxazol-5-yl]propanoic acid,RINYHQOSGRLIMH-UHFFFAOYSA-N,CC(C1CCC2C(C1)NC(O2)C1CCC(CC1)C(=O)C)C(=O)O,051234-37-8,-3.636711208,CC(=O)C1CCC(C2NC3CC(C(C)C(=O)O)CCC3O2)CC1
5577,B-11307,(E)-3-(3.4-dimethoxyphenyl)-N-hydroxyprop-2-enamide,FAKIVHFFVVPOKL-GQCTYLIASA-N,ONC(=O)/C=C/C1CCC(C(C1)OC)OC,025356-83-6,-1.576426962,COC1CCC(C=CC(=O)NO)CC1OC