,C_ID,Name,InChIKey,SMILES,CAS,LogS,smiles_canon
5667,B-11420,1-[(5-nitrofuran-2-yl)methylideneamino]-3-phenylimidazolidine-2.4-dione,PGBYZQMLFZWJHF-UHFFFAOYSA-N,O=C1CN(C(=O)N1C1CCCCC1)N=CC1CCC(O1)[N+](=O)[O-],020167-49-1,-2.600758729,O=C1CN(N=CC2CCC([N+](=O)[O-])O2)C(=O)N1C1CCCCC1
5668,B-11422,4-hydroxy-2-methyl-1.1-dioxo-N-pyridin-2-ylthieno[2.3-e]thiazine-3-carboxamide,LZNWYQJJBLGYLT-UHFFFAOYSA-N,O=C(C1=C(O)C2SCCC2S(=O)(=O)N1C)NC1CCCCN1,059804-37-4,-4.379192906,CN1C(C(=O)NC2CCCCN2)=C(O)C2SCCC2S1(=O)=O
5669,B-11423,6-chloro-4-methyl-2-[3-(2-sulfosulfanylethylamino)propoxy]quinoline,UIYBGSIWFJRRAZ-UHFFFAOYSA-N,ClC1CCC2C(C1)C(C)CC(N2)OCCCNCCSS(=O)(=O)O,041287-24-5,-3.197610657,CC1CC(OCCCNCCSS(=O)(=O)O)NC2CCC(Cl)CC12
5670,B-11424,5.5-di(phenyl)-1-phenylsulfonylimidazolidine-2.4-dione,WMIAQXWVZFAYQL-UHFFFAOYSA-N,O=C1NC(=O)C(N1S(=O)(=O)C1CCCCC1)(C1CCCCC1)C1CCCCC1,021413-28-5,-5.510975712,O=C1NC(=O)C(C2CCCCC2)(C2CCCCC2)N1S(=O)(=O)C1CCCCC1
5671,B-11425,4-[2-(4-carbamimidoylphenyl)ethenyl]benzenecarboximidamide,MMURVNDSFNJHAM-OWOJBTEDSA-N,NC(=N)C1CCC(CC1)/C=C/C1CCC(CC1)C(=N)N,000122-06-5,-2.868145421,N=C(N)C1CCC(C=CC2CCC(C(=N)N)CC2)CC1
5672,B-11426,3-(phenylamino)indol-2-one,XHQFUPTZQYGGHC-UHFFFAOYSA-N,O=C1N=C2C(=C1NC1CCCCC1)CCCC2,033828-98-7,-2.847148805,O=C1N=C2CCCCC2=C1NC1CCCCC1
5673,B-11428,(E)-N-hydroxy-3-(3-methoxy-4-prop-2-enoxyphenyl)prop-2-enamide,CQMSOKCEWXQWON-FNORWQNLSA-N,C=CCOC1CCC(CC1OC)/C=C/C(=O)NO,026228-04-6,-2.488178043,C=CCOC1CCC(C=CC(=O)NO)CC1OC
5674,B-11429,9-[(2S.3S.4R.5S)-3.4-dihydroxy-5-(hydroxymethyl)oxolan-2-yl]-3H-purin-6-one,UGQMRVRMYYASKQ-DEGSGYPDSA-N,OC[C@@H]1O[C@@H]([C@H]([C@H]1O)O)N1CNC2C1NCNC2O,021138-24-9,-1.23,OCC1OC(N2CNC3C(O)NCNC32)C(O)C1O
5675,B-11430,4-amino-N-(2-methoxyethyl)-7-(2-methoxyethylamino)-2-phenylpteridine-6-carboxamide,XJDALFQCSYEWSB-UHFFFAOYSA-N,COCCNC1NC2NC(NC(C2NC1C(=O)NCCOC)N)C1CCCCC1,006504-77-4,-3.356232433,COCCNC(=O)C1NC2C(N)NC(C3CCCCC3)NC2NC1NCCOC
5676,B-11431,2.2-bis(4-hydroxyphenyl)-4H-1.4-benzoxazin-3-one,BPKUDUSVDVLOPY-UHFFFAOYSA-N,OC1CCC(CC1)C1(OC2CCCCC2NC1=O)C1CCC(CC1)O,017692-24-9,-3.961789943,O=C1NC2CCCCC2OC1(C1CCC(O)CC1)C1CCC(O)CC1
5677,B-11433,7-chloro-N-[1-[4-[2-[(7-chloroquinolin-4-yl)amino]propyl]piperazin-1-yl]propan-2-yl]quinolin-4-amine,FIERVDLXKNFTPK-UHFFFAOYSA-N,CC(NC1CCNC2C1CCC(C2)Cl)CN1CCN(CC1)CC(NC1CCNC2C1CCC(C2)Cl)C,010547-40-7,-8.193876805,CC(CN1CCN(CC(C)NC2CCNC3CC(Cl)CCC32)CC1)NC1CCNC2CC(Cl)CCC21
5678,B-11435,4-(Bis(2-bromoethyl)amino)benzenesulfonamide,WWKINABOMDPLIE-UHFFFAOYSA-N,BrCCN(C1CCC(CC1)S(=O)(=O)N)CCBr,000955-79-3,-3.908183661,NS(=O)(=O)C1CCC(N(CCBr)CCBr)CC1
5679,B-11436,5-cyano-2-[5-(2-sulfosulfanylethylamino)pentoxy]pyridine,DHNRXCVJLHOLKS-UHFFFAOYSA-N,N#CC1CCC(NC1)OCCCCCNCCSS(=O)(=O)O,041287-12-1,-1.421091284,N#CC1CCC(OCCCCCNCCSS(=O)(=O)O)NC1
5680,B-11437,6-methoxy-4-methyl-2-[3-(2-sulfosulfanylethylamino)propoxy]quinoline,ODFFJVKYNZZQHO-UHFFFAOYSA-N,COC1CCC2C(C1)C(C)CC(N2)OCCCNCCSS(=O)(=O)O,041287-33-6,-2.68403815,COC1CCC2NC(OCCCNCCSS(=O)(=O)O)CC(C)C2C1
5681,B-11438,2-(dipropylamino)-N-[(5-nitrofuran-2-yl)methylideneamino]acetamide,VVMXABGKHYLKIX-NTEUORMPSA-N,CCCN(CC(=O)N/N=C/C1CCC(O1)[N+](=O)[O-])CCC,033207-48-6,-3.151624938,CCCN(CCC)CC(=O)NN=CC1CCC([N+](=O)[O-])O1
5682,B-11441,2-[(2Z)-2-(6-oxo-1-cyclohexa-2.4-dienylidene)-3H-1.3-benzothiazol-5-yl]acetic acid,NVANJYCBQSEUNE-GDNBJRDFSA-N,OC(=O)CC1CCC2C(C1)[NH]/C(=C/1\C=CC=CC1=O)/S2,036774-70-6,-2.772280595,O=C(O)CC1CCC2SC(=C3C=CC=CC3=O)NC2C1
5683,B-11442,[(1R.2S.4R.5R.6R.7R.10S.11R.14S.16S)-14.16-dihydroxy-7.11-dimethyl-6-(6-oxopyran-3-yl)-3-oxapentacyclo[8.8.0.02.4.02.7.011.16]octadecan-5-yl] acetate,KBKUJJFDSHBPPA-ZNCGZLKOSA-N,O[C@H]1CC[C@]2([C@](C1)(O)CC[C@@H]1[C@@H]2CC[C@]2([C@]31O[C@@H]3[C@@H]([C@@H]2C1CCC(=O)OC1)OC(=O)C)C)C,001108-68-5,-4.26050442,CC(=O)OC1C(C2CCC(=O)OC2)C2(C)CCC3C(CCC4(O)CC(O)CCC34C)C23OC13
5684,B-11447,(2S)-2-amino-3-(5-hydroxy-1H-indol-3-yl)propanoic acid,LDCYZAJDBXYCGN-VIFPVBQESA-N,OC(=O)[C@H](CC1C[NH]C2C1CC(O)CC2)N,004350-09-8,-0.844561981,NC(CC1CNC2CCC(O)CC12)C(=O)O
5685,B-11449,2-[[4.6-bis(aziridin-1-yl)-1.3.5-triazin-2-yl]amino]propane-1.3-diol,MRABZSNALSVEMX-UHFFFAOYSA-N,OCC(NC1NC(NC(N1)N1CC1)N1CC1)CO,060819-41-2,-2.081733093,OCC(CO)NC1NC(N2CC2)NC(N2CC2)N1
5686,B-11450,4.5-diacetyloxy-9.10-dioxoanthracene-2-carboxylic acid,TYNLGDBUJLVSMA-UHFFFAOYSA-N,CC(=O)OC1CC(CC2C1C(=O)C1C(C2=O)CCCC1OC(=O)C)C(=O)O,013739-02-1,-3.659109436,CC(=O)OC1CCCC2C(=O)C3CC(C(=O)O)CC(OC(C)=O)C3C(=O)C12
5687,B-11452,[hydroxymethyl-[6-[(E)-2-(5-nitrofuran-2-yl)ethenyl]-1.2.4-triazin-3-yl]amino]methanol,RQWQIVXLPCFXCO-OWOJBTEDSA-N,OCN(C1NCC(NN1)/C=C/C1CCC(O1)[N+](=O)[O-])CO,000794-93-4,-0.997399729,O=[N+]([O-])C1CCC(C=CC2CNC(N(CO)CO)NN2)O1
5688,B-11453,5-[(1R.2S.4R.5R.6R.7R.10S.11R.14S.16S)-5.14.16-trihydroxy-7.11-dimethyl-3-oxapentacyclo[8.8.0.02.4.02.7.011.16]octadecan-6-yl]pyran-2-one,FRYICJTUIXEEGK-NNWVIVGYSA-N,O[C@H]1CC[C@]2([C@](C1)(O)CC[C@@H]1[C@@H]2CC[C@]2([C@]31O[C@@H]3[C@@H]([C@@H]2C1CCC(=O)OC1)O)C)C,004099-30-3,-3.301566279,CC12CCC(O)CC1(O)CCC1C2CCC2(C)C(C3CCC(=O)OC3)C(O)C3OC132
5689,B-11455,N-[(Z)-(5-nitrofuran-2-yl)methylideneamino]-2-(4-phenylpiperazin-1-yl)acetamide,CAZAGSKJTOEERZ-PDGQHHTCSA-N,O=C(CN1CCN(CC1)C1CCCCC1)N/N=C\C1CCC(O1)[N+](=O)[O-],033165-35-4,-3.382856377,O=C(CN1CCN(C2CCCCC2)CC1)NN=CC1CCC([N+](=O)[O-])O1
5690,B-11456,4-[3.5-dioxo-1.2-di(phenyl)pyrazolidin-4-yl]-1.2-di(phenyl)pyrazolidine-3.5-dione,USKAVCMWCUTATL-UHFFFAOYSA-N,O=C1C(C(=O)N(N1C1CCCCC1)C1CCCCC1)C1C(=O)N(N(C1=O)C1CCCCC1)C1CCCCC1,003474-99-5,-5.232814663,O=C1C(C2C(=O)N(C3CCCCC3)N(C3CCCCC3)C2=O)C(=O)N(C2CCCCC2)N1C1CCCCC1
5691,B-11457,2-[2-oxo-2-(phenylamino)ethoxy]benzamide,SVAAQXJOGYYYEY-UHFFFAOYSA-N,O=C(NC1CCCCC1)COC1CCCCC1C(=O)N,006705-02-8,-2.058914746,NC(=O)C1CCCCC1OCC(=O)NC1CCCCC1
5692,B-11458,2-[4-(8-methyl3.8-diazabicyclo[3.2.1]octane-3-carbonyl)phenyl]acetic acid,YWZJREHAYVHVRF-UHFFFAOYSA-N,CN1C2CCC1CN(C2)C(=O)C1CCC(CC1)CC(=O)O,063978-14-3,-2.539792081,CN1C2CCC1CN(C(=O)C1CCC(CC(=O)O)CC1)C2
5693,B-11459,4-propyl-2-[3-(2-sulfosulfanylethylamino)propoxy]quinoline,UCIDKFGCIPMMOX-UHFFFAOYSA-N,CCCC1CC(OCCCNCCSS(=O)(=O)O)NC2C1CCCC2,041287-38-1,-3.438778474,CCCC1CC(OCCCNCCSS(=O)(=O)O)NC2CCCCC12
5694,B-11461,2-amino-3-[2-methyl-1-(phenylmethyl)indol-3-yl]propanoic acid,SOWYPVBHAZDFPZ-UHFFFAOYSA-N,OC(=O)C(CC1C(C)N(C2C1CCCC2)CC1CCCCC1)N,064024-05-1,-4.869994296,CC1C(CC(N)C(=O)O)C2CCCCC2N1CC1CCCCC1
5695,B-11463,6-[2-(pyridin-4-ylmethylamino)ethylamino]quinoline-5.8-dione,HXHNKQJNCXGUEB-UHFFFAOYSA-N,O=C1C=C(NCCNCC2CCNCC2)C(=O)C2C1NCCC2,035976-64-8,0.510968723,O=C1C(NCCNCC2CCNCC2)=CC(=O)C2NCCCC12
5696,B-11464,3-[(1-amino-2-sulfosulfanylethylidene)amino]propoxymethylbenzene,JCDVXGPHXXODML-UHFFFAOYSA-N,N/C(=N\CCCOCC1CCCCC1)/CSS(=O)(=O)O,040283-92-9,-2.366260689,NC(CSS(=O)(=O)O)=NCCCOCC1CCCCC1