,C_ID,Name,InChIKey,SMILES,CAS,LogS,smiles_canon
4960,B-10488,2-[2-[4-[(4-chlorophenyl)-phenylmethyl]piperazin-1-yl]ethoxy]ethanol,ZQDWXGKKHFNSQK-UHFFFAOYSA-N,OCCOCCN1CCN(CC1)C(C1CCC(CC1)Cl)C1CCCCC1,000068-88-2,-2.942482097,OCCOCCN1CCN(C(C2CCCCC2)C2CCC(Cl)CC2)CC1
4961,B-10489,7-(2-chloroethyl)-1.3-dimethylpurine-2.6-dione,QCIARNIKNKKHFH-UHFFFAOYSA-N,ClCCN1CNC2C1C(=O)N(C)C(=O)N2C,005878-61-5,-1.740564955,CN1C(=O)C2C(NCN2CCCl)N(C)C1=O
4962,B-10490,2-[2-[4-[di(phenyl)methyl]piperazin-1-yl]ethoxy]ethanol,OXBBIHZWNDPBMQ-UHFFFAOYSA-N,OCCOCCN1CCN(CC1)C(C1CCCCC1)C1CCCCC1,013073-96-6,-2.14113993,OCCOCCN1CCN(C(C2CCCCC2)C2CCCCC2)CC1
4963,B-10491,3-(2-dimethylaminoethyl)-1H-indol-5-ol,VTTONGPRPXSUTJ-UHFFFAOYSA-N,CN(CCC1C[NH]C2C1CC(O)CC2)C,000487-93-4,-0.671721689,CN(C)CCC1CNC2CCC(O)CC12
4964,B-10492,3-[1-[2-(4-aminophenyl)ethyl]-3-propylpyrrolidin-3-yl]phenol,HPOUDGQCZNPFSH-UHFFFAOYSA-N,CCCC1(CCN(C1)CCC1CCC(CC1)N)C1CCCC(C1)O,063951-04-2,-3.679942165,CCCC1(C2CCCC(O)C2)CCN(CCC2CCC(N)CC2)C1
4965,B-10493,1-methyl-9H-pyrido[5.4-b]indole-3-carboxamide,WWOQNKXXDOLCLH-UHFFFAOYSA-N,NC(=O)C1NC(C)C2C(C1)C1CCCCC1[NH]2,023256-12-4,-3.693701904,CC1NC(C(N)=O)CC2C3CCCCC3NC12
4966,B-10494,7-hydroxy-6-methoxychromen-2-one,RODXRVNMMDRFIK-UHFFFAOYSA-N,COC1CC2CCC(=O)OC2CC1O,000092-61-5,-2.380432773,COC1CC2CCC(=O)OC2CC1O
4967,B-10496,6.7-dihydroxychromen-2-one,ILEDWLMCKZNDJK-UHFFFAOYSA-N,O=C1CCC2C(O1)CC(C(C2)O)O,000305-01-1,-1.744940752,O=C1CCC2CC(O)C(O)CC2O1
4968,B-10497,1.1-di(phenyl)prop-2-ynyl N-cyclohexylcarbamate,NBEALWAVEGMZQY-UHFFFAOYSA-N,C#CC(C1CCCCC1)(C1CCCCC1)OC(=O)NC1CCCCC1,010087-89-5,-7.08843707,C#CC(OC(=O)NC1CCCCC1)(C1CCCCC1)C1CCCCC1
4969,B-10500,N-[(Z)-(5-nitrofuran-2-yl)methylideneamino]-2-(4-propan-2-ylpiperazin-1-yl)acetamide,LYFYXKGHAQOPTP-DHDCSXOGSA-N,CC(N1CCN(CC1)CC(=O)N/N=C\C1CCC(O1)[N+](=O)[O-])C,024637-21-6,-3.402466925,CC(C)N1CCN(CC(=O)NN=CC2CCC([N+](=O)[O-])O2)CC1
4970,B-10501,2-[2.3-dichloro-4-(2-methylidenebutanoyl)phenoxy]acetic acid,AVOLMBLBETYQHX-UHFFFAOYSA-N,CCC(=C)C(=O)C1CCC(C(C1Cl)Cl)OCC(=O)O,000058-54-8,-4.049147842,C=C(CC)C(=O)C1CCC(OCC(=O)O)C(Cl)C1Cl
4971,B-10503,N-[4-(trifluoromethyl)-1.3-oxazol-2-yl]acetamide,WLBASKRZYJUCTA-UHFFFAOYSA-N,CC(=O)NC1OCC(N1)C(F)(F)F,035629-41-5,-1.387141576,CC(=O)NC1NC(C(F)(F)F)CO1
4972,B-10504,2-[4-(3-oxo-1H-isoindol-2-yl)phenyl]butanoic acid,AYDXAULLCROVIT-UHFFFAOYSA-N,CCC(C1CCC(CC1)N1CC2C(C1=O)CCCC2)C(=O)O,036690-96-7,-4.390053717,CCC(C(=O)O)C1CCC(N2CC3CCCCC3C2=O)CC1
4973,B-10505,[2-bromo-6-[(4-bromophenyl)carbamothioyl]-4-chlorophenyl] acetate,NRFGEDASJHBPPN-UHFFFAOYSA-N,CC(=O)OC1C(Br)CC(CC1C(=S)NC1CCC(CC1)Br)Cl,023233-88-7,-6.815467207,CC(=O)OC1C(Br)CC(Cl)CC1C(=S)NC1CCC(Br)CC1
4974,B-10507,2-hydroxy-2.2-di(phenyl)-N'-(1-phenylpropan-2-yl)acetohydrazide,CDVQLCYIDGFKKI-UHFFFAOYSA-N,CC(CC1CCCCC1)NNC(=O)C(C1CCCCC1)(C1CCCCC1)O,063884-35-5,-4.539820125,CC(CC1CCCCC1)NNC(=O)C(O)(C1CCCCC1)C1CCCCC1
4975,B-10508,[(4R.4aS.7aR.12bS)-9-methoxy-3-methyl-7-oxo-2.4.7a.13-tetrahydro-1H-4.12-methanobenzofuro[3.2-e]isoquinolin-4a-yl] propanoate,MIQYLPZRCQLVEI-PSOYPTMXSA-N,CCC(=O)O[C@]12C=CC(=O)[C@H]3[C@]42CCN([C@@H]1CC1C4C(O3)C(CC1)OC)C,000981-01-1,-2.791542534,CCC(=O)OC12C=CC(=O)C3OC4C(OC)CCC5CC1N(C)CCC32C54
4976,B-10509,5-(2.5-Dimethylphenoxy)-2.2-dimethylpentanoic acid,HEMJJKBWTPKOJG-UHFFFAOYSA-N,CC1CCC(C(C1)OCCCC(C(=O)O)(C)C)C,025812-30-0,-4.359906616,CC1CCC(C)C(OCCCC(C)(C)C(=O)O)C1
4977,B-10510,3-nitroacridin-9-amine,RFGXJQLQGRJKMD-UHFFFAOYSA-N,[O-][N+](=O)C1CCC2C(C1)NC1C(C2N)CCCC1,014252-03-0,-4.341396386,NC1C2CCCCC2NC2CC([N+](=O)[O-])CCC21
4978,B-10511,(4R.4aS.7aR.12bS)-4a-hydroxy-9-methoxy-3-methyl-2.4.7a.13-tetrahydro-1H-4.12-methanobenzofuro[3.2-e]isoquinolin-7-one,YYCRAERBSFHMPL-XFKAJCMBSA-N,COC1CCC2C3C1O[C@@H]1[C@@]43CCN([C@H](C2)[C@]4(O)C=CC1=O)C,000508-54-3,-2.459005977,COC1CCC2CC3N(C)CCC45C(OC1C24)C(=O)C=CC35O
4979,B-10512,(2-carbamoylphenyl) acetate,KGHXFBVYXDFJGG-UHFFFAOYSA-N,CC(=O)OC1CCCCC1C(=O)N,005663-71-8,-0.166917582,CC(=O)OC1CCCCC1C(N)=O
4980,B-10514,N-(hydroxymethyl)pyridine-3-carboxamide,JRFKIOFLCXKVOT-UHFFFAOYSA-N,OCNC(=O)C1CCCNC1,003569-99-1,0.534807205,O=C(NCO)C1CCCNC1
4981,B-10515,2-[1-(phenylmethyl)indazol-3-yl]oxyacetic acid,BYFMCKSPFYVMOU-UHFFFAOYSA-N,OC(=O)COC1NN(C2C1CCCC2)CC1CCCCC1,1082041-34-6,-3.934041796,O=C(O)COC1NN(CC2CCCCC2)C2CCCCC12
4982,B-10516,2-[2-(4-methylphenyl)sulfanylethylamino]benzamide,SKALQPVVCXEHKD-UHFFFAOYSA-N,CC1CCC(CC1)SCCNC1CCCCC1C(=O)N,101820-67-1,-3.978395918,CC1CCC(SCCNC2CCCCC2C(N)=O)CC1
4983,B-10517,pyrrolidin-1-yl-(3.4.5-trimethoxyphenyl)methanone,GSYJYMHUFBKDCU-UHFFFAOYSA-N,COC1CC(CC(C1OC)OC)C(=O)N1CCCC1,063886-38-4,-2.083307851,COC1CC(C(=O)N2CCCC2)CC(OC)C1OC
4984,B-10518,4-oxo-4-phenylbut-2-enoic acid,PLPDHGOODMBBGN-VOTSOKGWSA-N,O=C(C1CCCCC1)/C=C/C(=O)O,000583-06-2,-1.398361785,O=C(O)C=CC(=O)C1CCCCC1
4985,B-10519,3-(2-hydroxyphenoxy)propane-1.2-diol,YFTRBASNPFHPAJ-UHFFFAOYSA-N,OCC(COC1CCCCC1O)O,019826-87-0,-0.650371166,OCC(O)COC1CCCCC1O
4986,B-10520,(pyridin-2-ylmethylideneamino)thiourea,GXBCCUBTQFNGFA-BJMVGYQFSA-N,NC(=S)N/N=C/C1CCCCN1,003608-75-1,0.105903163,NC(=S)NN=CC1CCCCN1
4987,B-10521,1-(2-methoxyethyl)-3.7-dimethylpurine-2.6-dione,OGYDFHUEGLLFKA-UHFFFAOYSA-N,COCCN1C(=O)C2N(C)CNC2N(C1=O)C,063906-61-6,-2.146578501,COCCN1C(=O)C2C(NCN2C)N(C)C1=O
4988,B-10522,[3-(4-chlorophenoxy)-2-hydroxypropyl] carbamate,SKPLBLUECSEIFO-UHFFFAOYSA-N,OC(COC(=O)N)COC1CCC(CC1)Cl,000886-74-8,-1.463167705,NC(=O)OCC(O)COC1CCC(Cl)CC1
4989,B-10523,N.N-dimethyl-2-[4-[3.3.3-tri(phenyl)propyl]piperazin-1-yl]pyrimidin-4-amine,AXVBJXVSFUOBFI-UHFFFAOYSA-N,CN(C1CCNC(N1)N1CCN(CC1)CCC(C1CCCCC1)(C1CCCCC1)C1CCCCC1)C,020980-17-0,-6.9810147,CN(C)C1CCNC(N2CCN(CCC(C3CCCCC3)(C3CCCCC3)C3CCCCC3)CC2)N1
4990,B-10524,4-propyl-2-[5-(2-sulfosulfanylethylamino)pentoxy]quinoline,FDCBVWSPDQQNRQ-UHFFFAOYSA-N,CCCC1CC(OCCCCCNCCSS(=O)(=O)O)NC2C1CCCC2,041287-42-7,-4.481951358,CCCC1CC(OCCCCCNCCSS(=O)(=O)O)NC2CCCCC12
4991,B-10525,(E)-N-(2-hydroxyethyl)-3-phenylprop-2-enamide,OSCTXCOERRNGLW-VOTSOKGWSA-N,OCCNC(=O)/C=C/C1CCCCC1,006961-46-2,-0.908092303,O=C(C=CC1CCCCC1)NCCO
4992,B-10527,1-ethyl-3-(1.3-oxazol-2-yl)urea,CCHMTZLZEZOPMO-UHFFFAOYSA-N,CCNC(=O)NC1NCCO1,035629-44-8,-0.76263658,CCNC(=O)NC1NCCO1
4993,B-10528,methyl 9-aminoacridine-2-carboxylate,LHERLWVEBQULCM-UHFFFAOYSA-N,COC(=O)C1CCC2C(C1)C(N)C1C(N2)CCCC1,064046-78-2,-4.06142664,COC(=O)C1CCC2NC3CCCCC3C(N)C2C1
4994,B-10529,1.2.4-triazol-4-amine,FMCUPJKTGNBGEC-UHFFFAOYSA-N,NN1CNNC1,000584-13-4,1.075296961,NN1CNNC1
4995,B-10530,5.6-di(phenyl)-2H-1.2.4-triazine-3-thione,PESHFZNRQCTMDJ-UHFFFAOYSA-N,S=C1[NH]NC(C(N1)C1CCCCC1)C1CCCCC1,007338-79-6,-7.544697052,S=C1NNC(C2CCCCC2)C(C2CCCCC2)N1
4996,B-10531,1-(4-fluorophenyl)-2-hydroxy-4-(4-phenylpiperazin-1-yl)butan-1-one,DTQPKKCVUDORIM-UHFFFAOYSA-N,FC1CCC(CC1)C(=O)C(CCN1CCN(CC1)C1CCCCC1)O,051037-47-9,-2.602585398,O=C(C(O)CCN1CCN(C2CCCCC2)CC1)C1CCC(F)CC1
4997,B-10532,2-hydroxy-N-(2-hydroxyethyl)benzamide,NCPLWPQEVIBZKJ-UHFFFAOYSA-N,OCCNC(=O)C1CCCCC1O,024207-38-3,-0.393032623,O=C(NCCO)C1CCCCC1O
4998,B-10533,6-amino-5-cyclohexyl-2.3-dihydro-1H-indene-1-carboxylic acid,VUDHKNQACVHAKK-UHFFFAOYSA-N,OC(=O)C1CCC2C1CC(N)C(C2)C1CCCCC1,028998-47-2,-4.267756542,NC1CC2C(CCC2C(=O)O)CC1C1CCCCC1
4999,B-10534,3-[2-(dibutylamino)ethoxy]propyl 4-aminobenzoate,VLNZLRGVZZUCPQ-UHFFFAOYSA-N,CCCCN(CCOCCCOC(=O)C1CCC(CC1)N)CCCC,063917-75-9,-4.306645624,CCCCN(CCCC)CCOCCCOC(=O)C1CCC(N)CC1
5000,B-10535,(phenyl-(phenylmethyl)phosphoryl)benzene,NXGAOFONOFYCNG-UHFFFAOYSA-N,O=P(C1CCCCC1)(C1CCCCC1)CC1CCCCC1,002959-74-2,-4.397669682,O=P(CC1CCCCC1)(C1CCCCC1)C1CCCCC1
5001,B-10536,1-(6-nitro-1.4-dihydro-2.3-benzoxazin-3-yl)ethanone,FFRVMAQKEPCGOM-UHFFFAOYSA-N,CC(=O)N1OCC2C(C1)CC(CC2)[N+](=O)[O-],021977-26-4,-2.253322369,CC(=O)N1CC2CC([N+](=O)[O-])CCC2CO1
5002,B-10540,[1-(4-chlorophenyl)-1-phenylprop-2-ynyl] carbamate,SXHWIUYWGJFLKB-UHFFFAOYSA-N,C#CC(C1CCCCC1)(C1CCC(CC1)Cl)OC(=O)N,010473-70-8,-5.571722496,C#CC(OC(N)=O)(C1CCCCC1)C1CCC(Cl)CC1
5003,B-10542,2-(hydroxymethyl)-2-[(2-methoxyphenoxy)methyl]propane-1.3-diol,AAQFEENIXHFFDP-UHFFFAOYSA-N,OCC(COC1CCCCC1OC)(CO)CO,007271-80-9,-1.397529698,COC1CCCCC1OCC(CO)(CO)CO
5004,B-10546,3-dimethylamino-1-(1H-indol-3-yl)-2-phenylpropan-1-one,NFLGRPGGSIWLGW-UHFFFAOYSA-N,CN(CC(C(=O)C1C[NH]C2C1CCCC2)C1CCCCC1)C,040281-34-3,-2.943506384,CN(C)CC(C(=O)C1CNC2CCCCC21)C1CCCCC1
5005,B-10547,4-chloro-2-(5-chloro-2-hydroxy-3-nitrophenyl)-6-nitrophenol,XULACPAEUUWKFX-UHFFFAOYSA-N,ClC1CC(C2CC(Cl)CC(C2O)[N+](=O)[O-])C(C(C1)[N+](=O)[O-])O,010331-57-4,-5.880778368,O=[N+]([O-])C1CC(Cl)CC(C2CC(Cl)CC([N+](=O)[O-])C2O)C1O
5006,B-10548,2-(dibutylamino)-2-(4-methoxyphenyl)acetamide,WUSAVCGXMSWMQM-UHFFFAOYSA-N,CCCCN(C(C1CCC(CC1)OC)C(=O)N)CCCC,000519-88-0,-4.929579352,CCCCN(CCCC)C(C(N)=O)C1CCC(OC)CC1
5007,B-10549,2-(7-chloro-1.4-dihydro-2.3-benzoxazin-3-yl)ethyl carbamate,LZRSJRREUJZNLN-UHFFFAOYSA-N,NC(=O)OCCN1OCC2C(C1)CCC(C2)Cl,021038-18-6,-2.540170463,NC(=O)OCCN1CC2CCC(Cl)CC2CO1
5008,B-10550,2-(hydroxymethyl)-2-[(2-methylphenoxy)methyl]propane-1.3-diol,DIHMPACCSOVKNI-UHFFFAOYSA-N,OCC(COC1CCCCC1C)(CO)CO,064049-37-2,-2.121634705,CC1CCCCC1OCC(CO)(CO)CO
5009,B-10551,2-ethyl-4-morpholin-4-yl-2-naphthalen-1-ylbutanamide,RWECDRYGVAHWOO-UHFFFAOYSA-N,CCC(C1CCCC2C1CCCC2)(C(=O)N)CCN1CCOCC1,001505-99-3,-3.625062409,CCC(CCN1CCOCC1)(C(N)=O)C1CCCC2CCCCC21
5010,B-10552,2-[2-(benzoyl)phenyl]acetic acid,RWOPZYIDUDXHIB-UHFFFAOYSA-N,OC(=O)CC1CCCCC1C(=O)C1CCCCC1,023107-96-2,-2.763677516,O=C(O)CC1CCCCC1C(=O)C1CCCCC1
5011,B-10553,6-aminopyridine-3-carboxamide,ZLWYEPMDOUQDBW-UHFFFAOYSA-N,NC1CCC(CN1)C(=O)N,000329-89-5,-0.891657811,NC(=O)C1CCC(N)NC1
5012,B-10554,4-(1.3-dioxoisoindol-2-yl)butanoic acid,HMKSXJBFBVGLJJ-UHFFFAOYSA-N,OC(=O)CCCN1C(=O)C2C(C1=O)CCCC2,003130-75-4,-2.392339588,O=C(O)CCCN1C(=O)C2CCCCC2C1=O
5013,B-10555,2-(2-methoxyphenyl)-3a.4.5.6.7.7a-hexahydro-4.7-epoxyisoindole-1.3-dione,JTGITTDWIRWXDN-UHFFFAOYSA-N,COC1CCCCC1N1C(=O)C2C(C1=O)C1OC2CC1,020707-40-8,-0.695468948,COC1CCCCC1N1C(=O)C2C3CCC(O3)C2C1=O
5014,B-10556,3.5-bis(phenylmethyl)-1.3.5-thiadiazinane-2-thione,QFVAWNPSRQWSDU-UHFFFAOYSA-N,S=C1SCN(CN1CC1CCCCC1)CC1CCCCC1,000350-12-9,-5.176388288,S=C1SCN(CC2CCCCC2)CN1CC1CCCCC1
5015,B-10557,2.6-dichloro-N-hydroxypyridine-4-carboxamide,XFGUWVXEXZICLY-UHFFFAOYSA-N,ONC(=O)C1CC(Cl)NC(C1)Cl,057803-70-0,-1.32123436,O=C(NO)C1CC(Cl)NC(Cl)C1
5016,B-10558,1-methoxy-3-(2-nitroimidazol-1-yl)propan-2-ol,OBBCSXFCDPPXOL-UHFFFAOYSA-N,[O-][N+](=O)C1NCCN1CC(COC)O,095120-44-8,-0.742607087,COCC(O)CN1CCNC1[N+](=O)[O-]
5017,B-10560,ethyl 3-methyl-2-sulfanylideneimidazole-1-carboxylate,CFOYWRHIYXMDOT-UHFFFAOYSA-N,CCOC(=O)N1CCN(C1=S)C,022232-54-8,-0.473056921,CCOC(=O)N1CCN(C)C1=S
5018,B-10561,3-nitro-2-[3-(2-sulfosulfanylethylamino)propoxy]pyridine,BYCNQOVVSOKZEP-UHFFFAOYSA-N,[O-][N+](=O)C1CCCNC1OCCCNCCSS(=O)(=O)O,041286-97-9,-0.881696286,O=[N+]([O-])C1CCCNC1OCCCNCCSS(=O)(=O)O
5019,B-10562,6-(3-piperidin-1-ylpropylamino)quinoline-5.8-dione,REFALBMIVDQKHY-UHFFFAOYSA-N,O=C1C(=CC(=O)C2C1CCCN2)NCCCN1CCCCC1,035976-67-1,-1.94218796,O=C1C(NCCCN2CCCCC2)=CC(=O)C2NCCCC12
5020,B-10563,3-(4-chloro-2-prop-2-enylphenoxy)propane-1.2-diol,BPICBJMTKZLFNL-UHFFFAOYSA-N,C=CCC1CC(Cl)CCC1OCC(CO)O,063905-19-1,-3.44504985,C=CCC1CC(Cl)CCC1OCC(O)CO
5021,B-10564,3-methyl-2-(2-morpholin-4-ylethyl)-2-naphthalen-1-ylbutanamide,BULQNWJGGGMADX-UHFFFAOYSA-N,CC(C(C1CCCC2C1CCCC2)(C(=O)N)CCN1CCOCC1)C,001506-00-9,-4.083368717,CC(C)C(CCN1CCOCC1)(C(N)=O)C1CCCC2CCCCC21
5022,B-10565,N-(4-Methoxyphenyl)-3-oxobutanamide,SWAJJKROCOJICG-UHFFFAOYSA-N,COC1CCC(CC1)NC(=O)CC(=O)C,005437-98-9,-1.642508533,COC1CCC(NC(=O)CC(C)=O)CC1
5023,B-10566,4-(aminomethyl)benzene-1.2-diol,YFMPSMITLLBENU-UHFFFAOYSA-N,NCC1CCC(C(C1)O)O,037491-68-2,0.856504274,NCC1CCC(O)C(O)C1
5024,B-10568,N-(2.6-dimethylphenyl)-2-oxo-1H-pyridine-3-carboxamide,WJDDCFNFNAHLAF-UHFFFAOYSA-N,O=C(C1CCC[NH]C1=O)NC1C(C)CCCC1C,057021-61-1,-3.262098102,CC1CCCC(C)C1NC(=O)C1CCCNC1=O
5025,B-10569,2-(4-Butoxy-3-chlorophenyl)acetamide,FQSNPFDKCZQZQY-UHFFFAOYSA-N,CCCCOC1CCC(CC1Cl)CC(=O)N,020781-67-3,-3.780159229,CCCCOC1CCC(CC(N)=O)CC1Cl
5026,B-10570,N-(3-methylpyridin-4-yl)-4-nitrobenzamide,PWQNAUQOWNUXPM-UHFFFAOYSA-N,O=C(C1CCC(CC1)[N+](=O)[O-])NC1CCNCC1C,036855-64-8,-3.065961405,CC1CNCCC1NC(=O)C1CCC([N+](=O)[O-])CC1
5027,B-10573,1.6-dimethyl-3-phenyl-5-(propan-2-ylamino)pyrimidine-2.4-dione,VVNYZYBWULAGJY-UHFFFAOYSA-N,CC(NC1C(C)N(C)C(=O)N(C1=O)C1CCCCC1)C,031992-00-4,-2.051090561,CC(C)NC1C(=O)N(C2CCCCC2)C(=O)N(C)C1C
5028,B-10575,N-(4-Ethoxyphenyl)-2-hydroxybenzamide,AVEUZYHDYBJRPU-UHFFFAOYSA-N,CCOC1CCC(CC1)NC(=O)C1CCCCC1O,064700-55-6,-3.80082681,CCOC1CCC(NC(=O)C2CCCCC2O)CC1
5029,B-10577,1-[3-[(E)-3-(4-nitrophenyl)prop-2-enyl]-3.8-diazabicyclo[3.2.1]octan-8-yl]propan-1-one,WRILSPHRDWMEMQ-ONEGZZNKSA-N,CCC(=O)N1C2CCC1CN(C2)C/C=C/C1CCC(CC1)[N+](=O)[O-],059038-10-7,-4.218870505,CCC(=O)N1C2CCC1CN(CC=CC1CCC([N+](=O)[O-])CC1)C2
5030,B-10578,3-(3-methoxyphenoxy)propane-1.2-diol,PVXJBKOQPCPILX-UHFFFAOYSA-N,OCC(COC1CCCC(C1)OC)O,017131-51-0,-1.450187765,COC1CCCC(OCC(O)CO)C1
5031,B-10581,ethyl 2-(2-hydroxy-3-methylaminopropoxy)-6-methyl-3-propan-2-ylbenzoate,IZNBPULXWXVBDC-UHFFFAOYSA-N,CNCC(COC1C(CCC(C1C(=O)OCC)C)C(C)C)O,053251-85-7,-2.875631529,CCOC(=O)C1C(C)CCC(C(C)C)C1OCC(O)CNC
5032,B-10582,5-ethyl-5-phenyl-1-(piperidin-1-ylmethyl)-1.3-diazinane-2.4.6-trione,ZTYRCJNTGWMELW-UHFFFAOYSA-N,CCC1(C(=O)NC(=O)N(C1=O)CN1CCCCC1)C1CCCCC1,006733-91-1,-3.403780229,CCC1(C2CCCCC2)C(=O)NC(=O)N(CN2CCCCC2)C1=O
5033,B-10583,4-amino-1-phenyl-8-(trifluoromethyl)-3H-1.5-benzodiazepin-2-one,VRAXKPZRHYDZFB-UHFFFAOYSA-N,NC1=NC2CCC(CC2N(C(=O)C1)C1CCCCC1)C(F)(F)F,036985-35-0,-2.742253384,NC1=NC2CCC(C(F)(F)F)CC2N(C2CCCCC2)C(=O)C1
5034,B-10584,5-methyl-3-phenyl-2-sulfanylideneimidazolidin-4-one,XGPFPXALZVOKRI-UHFFFAOYSA-N,S=C1NC(C(=O)N1C1CCCCC1)C,004333-19-1,-2.08142522,CC1NC(=S)N(C2CCCCC2)C1=O
5035,B-10585,5-[1-hydroxy-2-(propan-2-ylamino)ethyl]benzene-1.3-diol,LMOINURANNBYCM-UHFFFAOYSA-N,OC(C1CC(O)CC(C1)O)CNC(C)C,000586-06-1,0.675180669,CC(C)NCC(O)C1CC(O)CC(O)C1
5036,B-10586,N'-(1-phenylethyl)benzohydrazide,BEWNZPMDJIGBED-UHFFFAOYSA-N,CC(C1CCCCC1)NNC(=O)C1CCCCC1,007654-03-7,-3.53934257,CC(NNC(=O)C1CCCCC1)C1CCCCC1
5037,B-10587,4-(2-sulfosulfanylethylamino)butylbenzene,LBAPNIABYOOWDN-UHFFFAOYSA-N,OS(=O)(=O)SCCNCCCCC1CCCCC1,023464-46-2,-1.74217923,O=S(=O)(O)SCCNCCCCC1CCCCC1
5038,B-10588,[4-(bis(2-bromoethyl)amino)phenyl] 2.6-dimethylbenzoate,TZYLXYZBEHLNSG-UHFFFAOYSA-N,BrCCN(C1CCC(CC1)OC(=O)C1C(C)CCCC1C)CCBr,021667-03-8,-7.628808933,CC1CCCC(C)C1C(=O)OC1CCC(N(CCBr)CCBr)CC1
5039,B-10589,methyl 1-methyl-9H-pyrido[5.4-b]indole-3-carboxylate,LIAUJQLOCLVMMH-UHFFFAOYSA-N,COC(=O)C1NC(C)C2C(C1)C1CCCCC1[NH]2,016641-82-0,-4.253580271,COC(=O)C1CC2C3CCCCC3NC2C(C)N1
5040,B-10590,propan-2-yl 2-[2-hydroxy-3-(propan-2-ylamino)propoxy]-6-methyl-3-propan-2-ylbenzoate,RUOFYGLAOTYOFP-UHFFFAOYSA-N,OC(COC1C(CCC(C1C(=O)OC(C)C)C)C(C)C)CNC(C)C,053251-83-5,-4.315460346,CC(C)NCC(O)COC1C(C(C)C)CCC(C)C1C(=O)OC(C)C
5041,B-10591,N-(4-Ethoxyphenyl)-3-oxobutanamide,WWROGCAUSKGAMX-UHFFFAOYSA-N,CCOC1CCC(CC1)NC(=O)CC(=O)C,000122-82-7,-2.163051469,CCOC1CCC(NC(=O)CC(C)=O)CC1
5042,B-10592,3-(2-sulfosulfanylethylamino)propylbenzene,XENUZQKXLSDMDY-UHFFFAOYSA-N,OS(=O)(=O)SCCNCCCC1CCCCC1,000956-74-1,-1.2198259,O=S(=O)(O)SCCNCCCC1CCCCC1
5043,B-10593,(4-chlorophenyl)phosphonic acid,MVCIBABYNNIPFI-UHFFFAOYSA-N,ClC1CCC(CC1)P(=O)(O)O,005431-35-6,-1.599664328,O=P(O)(O)C1CCC(Cl)CC1
5044,B-10594,2.6-dibutoxy-N-hydroxypyridine-4-carboxamide,ILBINFKDNNTWSC-UHFFFAOYSA-N,CCCCOC1NC(OCCCC)CC(C1)C(=O)NO,057803-71-1,-4.200352408,CCCCOC1CC(C(=O)NO)CC(OCCCC)N1
5045,B-10595,2-[4-[(7-chloroquinolin-4-yl)amino]pentyl-ethylamino]ethanol,XXSMGPRMXLTPCZ-UHFFFAOYSA-N,OCCN(CCCC(NC1CCNC2C1CCC(C2)Cl)C)CC,000118-42-3,-3.032163611,CCN(CCO)CCCC(C)NC1CCNC2CC(Cl)CCC21
5046,B-10596,5-chloro-6-hydroxy-3H-1.3-benzoxazol-2-one,AGLXDWOTVQZHIQ-UHFFFAOYSA-N,O=C1[NH]C2C(O1)CC(C(C2)Cl)O,001750-45-4,-1.204033396,O=C1NC2CC(Cl)C(O)CC2O1
5047,B-10597,6-amino-3-methyl-1-prop-2-enylpyrimidine-2.4-dione,OCSRIEOBSUDSMV-UHFFFAOYSA-N,CN1C(=O)N(CC=C)C(CC1=O)N,007052-53-1,-1.479994983,C=CCN1C(=O)N(C)C(=O)CC1N
5048,B-10598,7H-purine-6-carbonitrile,NHYQQYMSESLQDX-UHFFFAOYSA-N,N#CC1NCNC2C1[NH]CN2,002036-13-7,-0.95762225,N#CC1NCNC2NCNC12
5049,B-10599,(8-methyl-8-azabicyclo[3.2.1]octan-3-yl) 3-hydroxy-2-(4-methoxyphenyl)propanoate,OMPLHFKUSGGZFF-UHFFFAOYSA-N,OCC(C1CCC(CC1)OC)C(=O)OC1CC2CCC(C1)N2C,063978-25-6,-2.218778963,COC1CCC(C(CO)C(=O)OC2CC3CCC(C2)N3C)CC1
5050,B-10600,N-(2.2-dichloro-1-hydroxyethyl)-2-(4-fluorophenyl)acetamide,LNMOMAPHKHLJLB-UHFFFAOYSA-N,OC(C(Cl)Cl)NC(=O)CC1CCC(CC1)F,001212-25-5,-1.652711727,O=C(CC1CCC(F)CC1)NC(O)C(Cl)Cl
5051,B-10602,2-(2-dimethylaminoethyl)-3-methyl-2-naphthalen-1-ylbutanamide,XXFVRXJPEIBBEZ-UHFFFAOYSA-N,CN(CCC(C1CCCC2C1CCCC2)(C(=O)N)C(C)C)C,001505-95-9,-4.107486543,CC(C)C(CCN(C)C)(C(N)=O)C1CCCC2CCCCC21
5052,B-10604,2-Aminobenzenesulfonamide,YAZSBRQTAHVVGE-UHFFFAOYSA-N,NC1CCCCC1S(=O)(=O)N,003306-62-5,-0.644973584,NC1CCCCC1S(N)(=O)=O
5053,B-10605,8-Chloro-6-phenyl-4H-[1.2.4]triazolo[4.3-a][1.4]benzodiazepine,CDCHDCWJMGXXRH-UHFFFAOYSA-N,ClC1CCC2C(C1)C(=NCC1N2CNN1)C1CCCCC1,029975-16-4,-5.294510433,ClC1CCC2C(C1)C(C1CCCCC1)=NCC1NNCN12
5054,B-10606,4-dimethylamino-2-methyl-2-naphthalen-1-ylbutanamide,QBLFYKYECNTDCF-UHFFFAOYSA-N,CN(CCC(C1CCCC2C1CCCC2)(C(=O)N)C)C,001505-93-7,-3.128772097,CN(C)CCC(C)(C(N)=O)C1CCCC2CCCCC21
5055,B-10607,[4-(bis(2-bromoethyl)amino)phenyl] 3-chlorobenzoate,NAXCZPWMFMOBLL-UHFFFAOYSA-N,BrCCN(C1CCC(CC1)OC(=O)C1CCCC(C1)Cl)CCBr,022954-17-2,-7.291333091,O=C(OC1CCC(N(CCBr)CCBr)CC1)C1CCCC(Cl)C1
5056,B-10608,3-[bis(2-chloroethyl)amino]-4-methyl-N-(1.3-thiazol-2-yl)benzamide,QGFGZTLOUOJUQB-UHFFFAOYSA-N,ClCCN(C1CC(CCC1C)C(=O)NC1NCCS1)CCCl,021447-40-5,-5.796069168,CC1CCC(C(=O)NC2NCCS2)CC1N(CCCl)CCCl
5057,B-10610,2-(2-dimethylaminoethyl)-5-methyl-2-naphthalen-1-ylhex-4-enamide,GNFSPFYMMKMHOG-UHFFFAOYSA-N,CN(CCC(C1CCCC2C1CCCC2)(C(=O)N)CC=C(C)C)C,050765-87-2,-5.064013827,CC(C)=CCC(CCN(C)C)(C(N)=O)C1CCCC2CCCCC21
5058,B-10611,tris(4-dimethylaminophenyl)methanol,QFVDKARCPMTZCS-UHFFFAOYSA-N,CN(C1CCC(CC1)C(C1CCC(CC1)N(C)C)(C1CCC(CC1)N(C)C)O)C,012769-21-0,-6.234529547,CN(C)C1CCC(C(O)(C2CCC(N(C)C)CC2)C2CCC(N(C)C)CC2)CC1
5059,B-10612,3.4-diacetyloxybenzoic acid,FJVSTYFZOUSZCS-UHFFFAOYSA-N,CC(=O)OC1CC(CCC1OC(=O)C)C(=O)O,058534-64-8,-2.430971956,CC(=O)OC1CCC(C(=O)O)CC1OC(C)=O
5060,B-10615,5-ethyl-1-(methoxymethyl)-3-methyl-5-phenyl-1.3-diazinane-2.4.6-trione,HEUUPESYFVKOLK-UHFFFAOYSA-N,COCN1C(=O)N(C)C(=O)C(C1=O)(CC)C1CCCCC1,042061-68-7,-2.629728347,CCC1(C2CCCCC2)C(=O)N(C)C(=O)N(COC)C1=O
5061,B-10616,6-amino-3-ethyl-1-propylpyrimidine-2.4-dione,NUEJYQRPPDNSDM-UHFFFAOYSA-N,CCCN1C(N)CC(=O)N(C1=O)CC,063981-32-8,-2.13362261,CCCN1C(=O)N(CC)C(=O)CC1N
5062,B-10617,2-(2.3-dihydroxypropoxy)benzaldehyde,KBGDSIVKVKJSJB-UHFFFAOYSA-N,OCC(COC1CCCCC1C=O)O,064049-48-5,-0.783500908,O=CC1CCCCC1OCC(O)CO
5063,B-10619,3-methyl-8-[(E)-3-phenylprop-2-enoyl]-3.8-diazabicyclo[3.2.1]octane-2.4-dione,ICGQGUKMXAOFOU-JXMROGBWSA-N,CN1C(=O)C2CCC(C1=O)N2C(=O)/C=C/C1CCCCC1,035139-98-1,-2.553432644,CN1C(=O)C2CCC(C1=O)N2C(=O)C=CC1CCCCC1
5064,B-10621,ethyl 2-[2-hydroxy-3-(propan-2-ylamino)propoxy]-6-methyl-3-propan-2-ylbenzoate,XZLBXQZCBMFFQT-UHFFFAOYSA-N,CCOC(=O)C1C(C)CCC(C1OCC(CNC(C)C)O)C(C)C,053251-86-8,-3.856124431,CCOC(=O)C1C(C)CCC(C(C)C)C1OCC(O)CNC(C)C
5065,B-10622,7-hydroxy-2-(4-methoxyphenyl)chromen-4-one,SQVXWIUVAILQRH-UHFFFAOYSA-N,COC1CCC(CC1)C1CC(=O)C2C(O1)CC(CC2)O,000487-24-1,-3.232669235,COC1CCC(C2CC(=O)C3CCC(O)CC3O2)CC1
5066,B-10623,2-(3-chloro-4-propoxyphenyl)-N-hydroxyacetamide,QGQQPPFXESPMCO-UHFFFAOYSA-N,CCCOC1CCC(CC1Cl)CC(=O)NO,023142-40-7,-2.79688276,CCCOC1CCC(CC(=O)NO)CC1Cl
5067,B-10624,1-(7-amino-1.4-dihydro-2.3-benzoxazin-3-yl)ethanone,XEIDPXZIMOWYQI-UHFFFAOYSA-N,NC1CCC2C(C1)CON(C2)C(=O)C,021965-10-6,-1.016622326,CC(=O)N1CC2CCC(N)CC2CO1
5068,B-10625,3-(4-ethoxyphenyl)-N-hydroxyprop-2-enamide,WNQVHMFKZVBQGL-VMPITWQZSA-N,CCOC1CCC(CC1)/C=C/C(=O)NO,026323-83-1,-2.251992542,CCOC1CCC(C=CC(=O)NO)CC1
5069,B-10626,2-(1H-indol-3-yl)-N.N-dimethyl-2-oxoacetamide,FIUGYEVWNQNDDO-UHFFFAOYSA-N,O=C(C(=O)C1C[NH]C2C1CCCC2)N(C)C,029095-44-1,-1.370676423,CN(C)C(=O)C(=O)C1CNC2CCCCC21