,C_ID,Name,InChIKey,SMILES,CAS,LogS,smiles_canon
943,B-4235,CINNAMYL  ACETATE,WJSDHUCWMSHDCR-VMPITWQZSA-N,CC(=O)OC/C=C/C1=CC=CC=C1,000103-54-8,-2.792723548,CC(=O)OCC=Cc1ccccc1
944,B-4244,1-ACETYL-2-THIOUREA,IPCRBOOJBPETMF-UHFFFAOYSA-N,CC(=O)N=C(N)S,000591-08-2,-0.9653,CC(=O)N=C(N)S
945,B-4255,Hydracrylic acid. pentyl ester. acetate,BOSGOBMSCGJBEU-UHFFFAOYSA-N,CCCCCOC(=O)C(C)OC(C)=O,020473-77-2,-0.8188,CCCCCOC(=O)C(C)OC(C)=O
946,B-4262,Decanebis(thioic) acid,OUADDINWGRXMJO-UHFFFAOYSA-N,C(CCCCC(=O)S)CCCC(=O)S,041476-09-9,-3.0689,O=C(S)CCCCCCCCC(=O)S
947,B-4263,Octanebisthioic acid,OITULTNTMHGRLX-UHFFFAOYSA-N,C(CCCC(=O)S)CCC(=O)S,049861-19-0,-2.2354,O=C(S)CCCCCCC(=O)S
948,B-4267,Benzenamine. N.2-dinitro-,DUDFRLLZEQANDP-UHFFFAOYSA-N,C1=CC=C(C(=C1)N[N+](=O)[O-])[N+](=O)[O-],055704-91-1,-1.1488,O=[N+]([O-])Nc1ccccc1[N+](=O)[O-]
949,B-4268,4-(2.4-Dichlorophenoxy)phenol,DPRSKCAGYLXDCY-UHFFFAOYSA-N,C1=CC(=CC=C1O)OC2=C(C=C(C=C2)Cl)Cl,040843-73-0,-4.202590476,Oc1ccc(Oc2ccc(Cl)cc2Cl)cc1
950,B-4270,2-Butenedioic acid. 2-methyl-. 4-methyl ester. (,TXHMXVHHWXUAQZ-ONEGZZNKSA-N,C/C(=C\C(=O)OC)/C(=O)O,077044-59-8,-0.077,COC(=O)C=C(C)C(=O)O
951,B-4280,2H-Naphtho[1.2-b]pyran-2-one. 4-methyl-,UPMCEGGVPZVZHL-UHFFFAOYSA-N,CC1=CC(=O)OC2=C1C=CC3=CC=CC=C32,002107-75-7,-2.5668,Cc1cc(=O)oc2c1ccc1ccccc12
952,B-4281,Benzenamine. 2.6-dibromo-N-nitro-,MSBAAWZRCZEWGQ-UHFFFAOYSA-N,C1=CC(=C(C(=C1)Br)N[N+](=O)[O-])Br,054381-71-4,-2.6169,O=[N+]([O-])Nc1c(Br)cccc1Br
953,B-4282,N-1-NAPTHYLTHIOUREA,PIVQQUNOTICCSA-UHFFFAOYSA-N,C1=CC=C2C(=C1)C=CC=C2N=C(N)S,000086-88-4,-2.528,NC(S)=Nc1cccc2ccccc12
954,B-4285,N-(Hydroxymethyl)THIOBENZAMIDE,ULLWVDKMTKASGV-UHFFFAOYSA-N,C1=CC=C(C=C1)C(=NCO)S,014078-82-1,-1.14,OCN=C(S)c1ccccc1
955,B-4289,2-Furanmethanol. tetrahydro-. benzoate,ZXVLLZARPGZABO-UHFFFAOYSA-N,C1CC(OC1)COC(=O)C2=CC=CC=C2,002217-32-5,-2.3231,O=C(OCC1CCCO1)c1ccccc1
956,B-4295,METHYL  2-METHYL-3-PHENYLTHIOPROPIONATE,GLYXACFPCLUSBA-UHFFFAOYSA-N,CC(CSC1=CC=CC=C1)C(=O)OC,000777-80-0,-2.12,COC(=O)C(C)CSc1ccccc1
957,B-4296,DEXOXADROL,HGKAMARNFGKMLC-UHFFFAOYSA-N,C1CCNC(C1)C2COC(O2)(C3=CC=CC=C3)C4=CC=CC=C4,006495-46-1,-3.664,c1ccc(C2(c3ccccc3)OCC(C3CCCCN3)O2)cc1
958,B-4307,3.5-dibromo-2-hydroxycyclohepta-2.4.6-trien-1-one,ZRYCFUMALBOKMC-UHFFFAOYSA-N,C1=CC(=O)C(=C(C=C1Br)Br)O,004636-40-2,-3.5026,O=c1ccc(Br)cc(Br)c1O
959,B-4313,Butanoic acid. 2.3-dibromo-2-methyl-,WWYSKCWQDVVVKF-UHFFFAOYSA-N,CC(C(C)(C(=O)O)Br)Br,091114-65-7,-1.393687853,CC(Br)C(C)(Br)C(=O)O
960,B-4335,Metofluthrin,KVIZNNVXXNFLMU-AATRIKPKSA-N,C/C=C/C1C(C1(C)C)C(=O)OCC2=C(C(=C(C(=C2F)F)COC)F)F,240494-70-6,-5.730647072,CC=CC1C(C(=O)OCc2c(F)c(F)c(COC)c(F)c2F)C1(C)C
961,B-4345,DIDODECYL  PHTHALATE,PUFGCEQWYLJYNJ-UHFFFAOYSA-N,CCCCCCCCCCCCOC(=O)C1=CC=CC=C1C(=O)OCCCCCCCCCCCC,002432-90-8,-6.555000001,CCCCCCCCCCCCOC(=O)c1ccccc1C(=O)OCCCCCCCCCCCC
962,B-4352,4(1H)-PYRIMIDINONE. 2.3-DIHYDRO-5-METHYL-2-THIOX,ZLAQATDNGLKIEV-UHFFFAOYSA-N,CC1=CN=C(NC1=O)S,000636-26-0,-2.4461,Cc1cnc(S)[nH]c1=O
963,B-4357,2.4.6-Cycloheptatrien-1-one. 3.5.7-tribromo-2-hy,LOZICHMYQGIQQC-UHFFFAOYSA-N,C1=C(C=C(C(=O)C(=C1Br)O)Br)Br,000363-67-7,-3.5911,O=c1c(Br)cc(Br)cc(Br)c1O
964,B-4359,1.5-Pentanediol. dipropanoate,GYZVZBFSJCVIDL-UHFFFAOYSA-N,CCC(=O)OCCCCCOC(=O)CC,010025-09-9,-2.2312,CCC(=O)OCCCCCOC(=O)CC
965,B-4374,1.3.5-Triazine-2.4-diamine. N.N'-dimethyl-,XGESZDIYTMNBCS-UHFFFAOYSA-N,CNC1=NC(=NC=N1)NC,030368-50-4,-0.9674,CNc1ncnc(NC)n1
966,B-4376,2-[1-[4-(phenoxy)phenoxy]propan-2-yloxy]pyridine,NHDHVHZZCFYRSB-UHFFFAOYSA-N,CC(COC1=CC=C(C=C1)OC2=CC=CC=C2)OC3=CC=CC=N3,095737-68-1,-5.938810366,CC(COc1ccc(Oc2ccccc2)cc1)Oc1ccccn1
967,B-4380,2-(Trifluoromethyl)benzamide,QBAYIBZITZBSFO-UHFFFAOYSA-N,C1=CC=C(C(=C1)C(=O)N)C(F)(F)F,000360-64-5,-1.162832455,NC(=O)c1ccccc1C(F)(F)F
968,B-4395,2-Butenedioic acid. 2-methyl-. 1-methyl ester. (,BGMFJTUTJOZHHZ-ONEGZZNKSA-N,C/C(=C\C(=O)O)/C(=O)OC,039529-95-8,-0.7522,COC(=O)C(C)=CC(=O)O
969,B-4416,N-tert-butyl-6-chloro-1.3.5-triazine-2.4-diamine,LMKQNTMFZLAJDV-UHFFFAOYSA-N,CC(C)(C)NC1=NC(=NC(=N1)N)Cl,030125-63-4,-2.789935558,CC(C)(C)Nc1nc(N)nc(Cl)n1
970,B-4425,(4-chlorophenyl) 4-chlorobenzenesulfonate,RZXLPPRPEOUENN-UHFFFAOYSA-N,C1=CC(=CC=C1OS(=O)(=O)C2=CC=C(C=C2)Cl)Cl,000080-33-1,-5.010379328,O=S(=O)(Oc1ccc(Cl)cc1)c1ccc(Cl)cc1
971,B-4432,N-[[2-chloro-3.5-bis(trifluoromethyl)phenyl]carbamoyl]-2.6-difluorobenzamide,YNKFZRGTXAPYFD-UHFFFAOYSA-N,C1=CC(=C(C(=C1)F)C(=O)NC(=O)NC2=CC(=CC(=C2Cl)C(F)(F)F)C(F)(F)F)F,201593-84-2,-7.172875253,O=C(NC(=O)c1c(F)cccc1F)Nc1cc(C(F)(F)F)cc(C(F)(F)F)c1Cl
972,B-4438,3-chloro-N-[3-chloro-2.6-dinitro-4-(trifluoromethyl)phenyl]-5-(trifluoromethyl)pyridin-2-amine,UZCGKGPEKUCDTF-UHFFFAOYSA-N,C1=C(C=NC(=C1Cl)NC2=C(C=C(C(=C2[N+](=O)[O-])Cl)C(F)(F)F)[N+](=O)[O-])C(F)(F)F,079622-59-6,-6.537208276,O=[N+]([O-])c1cc(C(F)(F)F)c(Cl)c([N+](=O)[O-])c1Nc1ncc(C(F)(F)F)cc1Cl
973,B-4439,2.6-DIFLUOROBENZOIC ACID,ONOTYLMNTZNAQZ-UHFFFAOYSA-N,C1=CC(=C(C(=C1)F)C(=O)O)F,000385-00-2,-1.71279641,O=C(O)c1c(F)cccc1F
974,B-4441,2H-1-Benzopyran-4-carboxylic acid. 2-oxo-. ethyl,RJAZNJSRZXVBIX-UHFFFAOYSA-N,CCOC(=O)C1=CC(=O)OC2=CC=CC=C21,004825-95-0,-2.5607,CCOC(=O)c1cc(=O)oc2ccccc12
975,B-4446,2-amino-3-chloronaphthalene-1.4-dione,OBLNWSCLAYSJJR-UHFFFAOYSA-N,C1=CC=C2C(=C1)C(=O)C(=C(C2=O)Cl)N,002797-51-5,-4.001290265,NC1=C(Cl)C(=O)c2ccccc2C1=O
976,B-4448,Acetamide. N-acetyl-2-chloro-,AYETZOVOIOQESV-UHFFFAOYSA-N,CC(=O)NC(=O)CCl,017368-73-9,-1.5089,CC(=O)NC(=O)CCl
977,B-4449,1-Triazene. 3-hydroxy-3-methyl-1-phenyl-,NZZQYTAPSBWNOV-UHFFFAOYSA-N,CN(N=NC1=CC=CC=C1)O,005756-69-4,-1.5263,CN(O)N=Nc1ccccc1
978,B-4452,(4-chlorophenyl) benzenesulfonate,SPJOZZSIXXJYBT-UHFFFAOYSA-N,C1=CC=C(C=C1)S(=O)(=O)OC2=CC=C(C=C2)Cl,000080-38-6,-4.209182691,O=S(=O)(Oc1ccc(Cl)cc1)c1ccccc1
979,B-4456,2-thiouracil,ZEMGGZBWXRYJHK-UHFFFAOYSA-N,C1=CN=C(NC1=O)S,000141-90-2,-2.2573,O=c1ccnc(S)[nH]1
980,B-4458,N-methyl-2.4-dinitro-N-(2.4.6-tribromophenyl)-6-(trifluoromethyl)aniline,USMZPYXTVKAYST-UHFFFAOYSA-N,CN(C1=C(C=C(C=C1[N+](=O)[O-])[N+](=O)[O-])C(F)(F)F)C2=C(C=C(C=C2Br)Br)Br,063333-35-7,-8.460848399,CN(c1c(Br)cc(Br)cc1Br)c1c([N+](=O)[O-])cc([N+](=O)[O-])cc1C(F)(F)F
981,B-4469,1H-quinoxalin-2-one,FFRYUAVNPBUEIC-UHFFFAOYSA-N,C1=CC=C2C(=C1)NC(=O)C=N2,001196-57-2,-0.949949623,O=c1cnc2ccccc2[nH]1
982,B-4471,3(2H)-Pyridazinone. 4.5-dihydro-6-methyl-2-pheny,KQVXOJQOQRTUDA-UHFFFAOYSA-N,CC1=NN(C(=O)CC1)C2=CC=CC=C2,004578-58-9,-1.5504,CC1=NN(c2ccccc2)C(=O)CC1
983,B-4485,Hydrazinecarboximidamide. N-nitro-,LWPLPMSGDZDOLW-UHFFFAOYSA-N,C(=NN)(N)N[N+](=O)[O-],018264-75-0,-1.6458,NN=C(N)N[N+](=O)[O-]
984,B-4489,oxido-phenyl-phenyliminoazanium,GAUZCKBSTZFWCT-UHFFFAOYSA-N,C1=CC=C(C=C1)N=[N+](C2=CC=CC=C2)[O-],000495-48-7,-5.297155797,[O-][N+](=Nc1ccccc1)c1ccccc1
985,B-4490,3.5-Morpholinedione,MXAJVDHGJCYEKL-UHFFFAOYSA-N,C1C(=O)NC(=O)CO1,004430-05-1,-0.818,O=C1COCC(=O)N1
986,B-4493,6-chloro-4-N-(3-methoxypropyl)-2-N-propan-2-yl-1.3.5-triazine-2.4-diamine,PMYBBBROJPQQQV-UHFFFAOYSA-N,CC(C)NC1=NC(=NC(=N1)NCCCOC)Cl,001824-09-5,-3.335362743,COCCCNc1nc(Cl)nc(NC(C)C)n1
987,B-4502,6-tert-butyl-2H-1.2.4-triazine-3.5-dione,ZARIFGFXSIZTAK-UHFFFAOYSA-N,CC(C)(C)C1=NNC(=O)NC1=O,052236-30-3,-1.500002426,CC(C)(C)c1n[nH]c(=O)[nH]c1=O
988,B-4505,1.3.4-THIADIAZOLIDINE-2.5-DITHIONE,BIGYLAKFCGVRAN-UHFFFAOYSA-N,C1(=NN=C(S1)S)S,001072-71-5,-0.7552,Sc1nnc(S)s1
989,B-4506,(3-dodecyl-1.4-dioxonaphthalen-2-yl) acetate,QDRXWCAVUNHOGA-UHFFFAOYSA-N,CCCCCCCCCCCCC1=C(C(=O)C2=CC=CC=C2C1=O)OC(=O)C,057960-19-7,-7.739814569,CCCCCCCCCCCCC1=C(OC(C)=O)C(=O)c2ccccc2C1=O
990,B-4509,Oxanilic acid. 2'.4'-dichloro-,OXPLSAGSBKFGEF-UHFFFAOYSA-N,C1=CC(=C(C=C1Cl)Cl)NC(=O)C(=O)O,017772-30-4,-2.2766,O=C(O)C(=O)Nc1ccc(Cl)cc1Cl
991,B-4512,N-(4-fluorophenyl)-6-[3-(trifluoromethyl)phenoxy]pyridine-2-carboxamide,CWKFPEBMTGKLKX-UHFFFAOYSA-N,C1=CC(=CC(=C1)OC2=CC=CC(=N2)C(=O)NC3=CC=C(C=C3)F)C(F)(F)F,137641-05-5,-6.903440977,O=C(Nc1ccc(F)cc1)c1cccc(Oc2cccc(C(F)(F)F)c2)n1
992,B-4513,(2-chloro-3.4-dimethylphenyl) N-methylcarbamate,FNAAOMSRAVKQGQ-UHFFFAOYSA-N,CC1=C(C(=C(C=C1)OC(=O)NC)Cl)C,000671-04-5,-3.024378562,CNC(=O)Oc1ccc(C)c(C)c1Cl
993,B-4519,Benzenesulfonamide. .alpha.-hydroxy-. butyl este,QLVXFMSPNHAPMO-UHFFFAOYSA-N,CCCCOC(=O)C(C1=CC=CC=C1)O,014007-02-4,-1.7504,CCCCOC(=O)C(O)c1ccccc1
994,B-4520,1.3.5-Triazine-2.4-diamine. N-ethyl-,ZCMOXKOUKFOYFB-UHFFFAOYSA-N,CCNC1=NC=NC(=N1)N,030368-49-1,-1.1435,CCNc1ncnc(N)n1
995,B-4524,butyl 6.6-dimethyl-4-oxo-5H-pyran-2-carboxylate,OKIJSNGRQAOIGZ-UHFFFAOYSA-N,CCCCOC(=O)C1=CC(=O)CC(O1)(C)C,000532-34-3,-2.915297738,CCCCOC(=O)C1=CC(=O)CC(C)(C)O1
996,B-4535,Methomyl oxime,TYEVWCPZVQACAE-ONEGZZNKSA-N,C/C(=N\O)/SC,013749-94-5,-0.924917437,CSC(C)=NO
997,B-4541,1H-Purine-2.6-dione. 8-ethoxy-3.7-dihydro-1.3.7-,LCYXNYNRVOBSHK-UHFFFAOYSA-N,CCOC1=NC2=C(N1C)C(=O)N(C(=O)N2C)C,000577-66-2,-1.8999,CCOc1nc2c(c(=O)n(C)c(=O)n2C)n1C
998,B-4549,2-(3-methylbutanoyl)indene-1.3-dione,PVWMAOPFDINGAY-UHFFFAOYSA-N,CC(C)CC(=O)C1C(=O)C2=CC=CC=C2C1=O,000083-28-3,-3.364837397,CC(C)CC(=O)C1C(=O)c2ccccc2C1=O
999,B-4551,N-ME CARBAMATE.3-ME-4-MES PHENYL,SLZKSCPVPMUGAP-UHFFFAOYSA-N,CC1=C(C=CC(=C1)OC(=O)NC)SC,003566-00-5,-3.973,CNC(=O)Oc1ccc(SC)c(C)c1
1000,B-4554,2H-Purin-2-one. 1.3.6.7-tetrahydro-1.3.7-trimeth,PYUDRFSIKNBDQS-UHFFFAOYSA-N,CN1C=NC2=C1C(=S)N(C(=O)N2C)C,013182-58-6,-3.3228,Cn1c(=S)c2c(ncn2C)n(C)c1=O
1001,B-4575,5-chloro-N-[1-[4-(difluoromethoxy)phenyl]propyl]-6-methylpyrimidin-4-amine,NEKULYKCZPJMMJ-UHFFFAOYSA-N,CCC(C1=CC=C(C=C1)OC(F)F)NC2=NC=NC(=C2Cl)C,130339-07-0,-3.99702876,CCC(Nc1ncnc(C)c1Cl)c1ccc(OC(F)F)cc1
1002,B-4594,2H-1-Benzopyran-2-one. 6-nitro-,RMERXEXZXIVNBF-UHFFFAOYSA-N,C1=CC2=C(C=CC(=O)O2)C=C1[N+](=O)[O-],002725-81-7,-2.6581,O=c1ccc2cc([N+](=O)[O-])ccc2o1
1003,B-4595,2-Butenedioic acid. 2-methyl-. 4-ethyl ester. (E,RTTAGBVNSDJDTE-UHFFFAOYSA-N,CCOC(=O)CC(=C)C(=O)O,057718-07-7,-0.9181,C=C(CC(=O)OCC)C(=O)O
1004,B-4598,s-Triazine. 2-(allylamino)-4-amino-,NHTUOTYSAKWUOO-UHFFFAOYSA-N,C=CCNC1=NC=NC(=N1)N,098197-51-4,-1.0034,C=CCNc1ncnc(N)n1
1005,B-4606,2.6-dibromo-7-hydroxy-3-propan-2-ylcyclohepta-2.4.6-trien-1-one,FEHMNUNVDNGBFI-UHFFFAOYSA-N,CC(C)C1=C(C(=O)C(=C(C=C1)Br)O)Br,004584-66-1,-4.4665,CC(C)c1ccc(Br)c(O)c(=O)c1Br
1006,B-4607,ANISYL  PHENYLACETATE,VCYWCSZLXMMLLE-UHFFFAOYSA-N,COC1=CC=C(C=C1)COC(=O)CC2=CC=CC=C2,000102-17-0,-2.7,COc1ccc(COC(=O)Cc2ccccc2)cc1
1007,B-4618,(2-butan-2-yl-4.6-dinitrophenyl) propan-2-yl carbonate,HDWLUGYOLUHEMN-UHFFFAOYSA-N,CCC(C)C1=C(C(=CC(=C1)[N+](=O)[O-])[N+](=O)[O-])OC(=O)OC(C)C,000973-21-7,-4.914833754,CCC(C)c1cc([N+](=O)[O-])cc([N+](=O)[O-])c1OC(=O)OC(C)C
1008,B-4621,2.4-DIAMINO-6-ISOPRPYL-S-TRIAZINE,OOEGQLPPMITCBZ-UHFFFAOYSA-N,CC(C)C1=NC(=NC(=N1)N)N,005397-04-6,-1.4324,CC(C)c1nc(N)nc(N)n1
1009,B-4623,Diafenthiuron,WOWBFOBYOAGEEA-UHFFFAOYSA-N,CC(C)C1=CC(=CC(=C1NC(=NC(C)(C)C)S)C(C)C)OC2=CC=CC=C2,080060-09-9,-6.806799997,CC(C)c1cc(Oc2ccccc2)cc(C(C)C)c1NC(S)=NC(C)(C)C
1010,B-4627,3-(Trifluoromethyl)benzoic acid,FQXQBFUUVCDIRK-UHFFFAOYSA-N,C1=CC(=CC(=C1)C(F)(F)F)C(=O)O,000454-92-2,-3.105844964,O=C(O)c1cccc(C(F)(F)F)c1
1011,B-4631,2-[4-fluoro-3-(trifluoromethyl)phenoxy]-N-(phenylmethyl)butanamide,FFQPZWRNXKPNPX-UHFFFAOYSA-N,CCC(C(=O)NCC1=CC=CC=C1)OC2=CC(=C(C=C2)F)C(F)(F)F,113614-08-7,-5.033437689,CCC(Oc1ccc(F)c(C(F)(F)F)c1)C(=O)NCc1ccccc1
1012,B-4637,1-chloro-2.3.4-trinitrobenzene,SRYLRVUJDQTFDL-UHFFFAOYSA-N,C1=CC(=C(C(=C1[N+](=O)[O-])[N+](=O)[O-])[N+](=O)[O-])Cl,028260-61-9,-3.143276465,O=[N+]([O-])c1ccc(Cl)c([N+](=O)[O-])c1[N+](=O)[O-]
1013,B-4646,buprenorphine,UAIXRPCCYXNJMQ-CHLZSUIASA-N,CO[C@]12CC[C@@]3(C[C@@H]1[C@](C)(O)C(C)(C)C)[C@H]1CC4=C5C(O[C@@H]2[C@@]35CCN1CC1CC1)=C(O)C=C4,052485-79-7,-5.866463823,COC12CCC3(CC1C(C)(O)C(C)(C)C)C1Cc4ccc(O)c5c4C3(CCN1CC1CC1)C2O5
1014,B-4653,10-phenoxarsinin-10-yloxyphenoxarsinine,VCRZAKVGPJFABU-UHFFFAOYSA-N,C1=CC=C2C(=C1)OC3=CC=CC=C3[As]2O[As]4C5=CC=CC=C5OC6=CC=CC=C64,000058-36-6,-5.001934203,c1ccc2c(c1)Oc1ccccc1[As]2O[As]1c2ccccc2Oc2ccccc21
1015,B-4656,2.4-DIAMINO-6-PROPYL-S-TRIAZINE,NGYGUYRBWLUDRP-UHFFFAOYSA-N,CCCC1=NC(=NC(=N1)N)N,005962-23-2,-0.9157,CCCc1nc(N)nc(N)n1
1016,B-4658,1.3.5.7-tetramethylpyrimido[5.4-d]pyrimidine-2.4.6.8-tetrone,DDIQGLSDKLRVDA-UHFFFAOYSA-N,CN1C(=O)N(C)C2=C(N(C)C(=O)N(C)C2=O)C1=O,093506-59-3,-2.9394,Cn1c(=O)c2c(c(=O)n(C)c(=O)n2C)n(C)c1=O
1017,B-4661,ethyl 2-diethoxyphosphinothioylsulfanylacetate,AISZOMRXKKCPIS-UHFFFAOYSA-N,CCOC(=O)CSP(=S)(OCC)OCC,000919-54-0,-3.595591444,CCOC(=O)CSP(=S)(OCC)OCC
1018,B-4666,BENZENAMINE. N-METHYL-2.4-DINITRO-,IQEJEZOCXWJNKR-UHFFFAOYSA-N,CNC1=C(C=C(C=C1)[N+](=O)[O-])[N+](=O)[O-],002044-88-4,-3.9938,CNc1ccc([N+](=O)[O-])cc1[N+](=O)[O-]
1019,B-4677,Butanoic acid. 4-(diethylamino)-4-oxo-. propyl e,UZCDZCKZKAMXMC-UHFFFAOYSA-N,CCCOC(=O)CCC(=O)N(CC)CC,005834-84-4,-0.617,CCCOC(=O)CCC(=O)N(CC)CC
1020,B-4684,4-bromo-2-(4-chlorophenyl)-1-(ethoxymethyl)-5-(trifluoromethyl)pyrrole-3-carbonitrile,CWFOCCVIPCEQCK-UHFFFAOYSA-N,CCOCN1C(=C(C(=C1C(F)(F)F)Br)C#N)C2=CC=C(C=C2)Cl,122453-73-0,-6.561034159,CCOCn1c(-c2ccc(Cl)cc2)c(C#N)c(Br)c1C(F)(F)F
1021,B-4686,Benzoic acid. 3-chloro-2-hydroxy-,PPINMMULCRBDOS-UHFFFAOYSA-N,C1=CC(=C(C(=C1)Cl)O)C(=O)O,001829-32-9,-2.3339,O=C(O)c1cccc(Cl)c1O
1022,B-4687,OXAMIDE,YIKSCQDJHCMVMK-UHFFFAOYSA-N,C(=O)(C(=O)N)N,000471-46-5,-2.3766,NC(=O)C(N)=O
1023,B-4694,Triticonazole,PPDBOQMNKNNODG-ZROIWOOFSA-N,CC1(CC/C(=C/C2=CC=C(C=C2)Cl)/C1(CN3C=NC=N3)O)C,131983-72-7,-4.6571,CC1(C)CCC(=Cc2ccc(Cl)cc2)C1(O)Cn1cncn1
1024,B-4710,2-Cyano-2-(methoxyimino)acetic acid,BZODTNGMGUKGEV-UHFFFAOYSA-N,CC1=C(C2=C(N1)C=CC(=C2)Cl)C=O,057335-86-1,-2.391863049,Cc1[nH]c2ccc(Cl)cc2c1C=O
1025,B-4711,[3-(2.4-dichlorophenyl)-2-oxo-1-oxaspiro[4.5]dec-3-en-4-yl] 2.2-dimethylbutanoate,DTDSAWVUFPGDMX-UHFFFAOYSA-N,CCC(C)(C)C(=O)OC1=C(C(=O)OC12CCCCC2)C3=C(C=C(C=C3)Cl)Cl,148477-71-8,-6.915214257,CCC(C)(C)C(=O)OC1=C(c2ccc(Cl)cc2Cl)C(=O)OC12CCCCC2
1026,B-4733,4-Isoxazolecarboxylic acid. 3-methyl-5-phenyl-,GLNQCTGGLIXRRJ-UHFFFAOYSA-N,CC1=NOC(=C1C(=O)O)C2=CC=CC=C2,017153-21-8,-3.1841,Cc1noc(-c2ccccc2)c1C(=O)O
1027,B-4737,Isopropropyl.4-formylphenoxyl acetate,SIPMCPQKUMPVBW-UHFFFAOYSA-N,CC(C)OC(=O)COC1=CC=C(C=C1)C=O,199177-25-8,-2.5797,CC(C)OC(=O)COc1ccc(C=O)cc1
1028,B-4739,3-(difluoromethyl)-1-methyl-N-[2-(3.4.5-trifluorophenyl)phenyl]pyrazole-4-carboxamide,SXSGXWCSHSVPGB-UHFFFAOYSA-N,CN1C=C(C(=N1)C(F)F)C(=O)NC2=CC=CC=C2C3=CC(=C(C(=C3)F)F)F,907204-31-3,-5.044708363,Cn1cc(C(=O)Nc2ccccc2-c2cc(F)c(F)c(F)c2)c(C(F)F)n1
1029,B-4748,2.5-Furandipropionic acid. tetrahydro-. diethyl,RBEXYSCAIVIWFD-TXEJJXNPSA-N,CCOC(=O)CC[C@H]1CC[C@H](O1)CCC(=O)OCC,092371-84-1,-2.657,CCOC(=O)CCC1CCC(CCC(=O)OCC)O1
1030,B-4749,ETOMIDATE,NPUKDXXFDDZOKR-NSHDSACASA-N,CCOC(=O)C1CNCN1[C@H](C1CCCCC1)C,033125-97-2,-4.73,CCOC(=O)C1CNCN1C(C)C1CCCCC1
1031,B-4754,1H-2-Benzopyran-3-carboxylic. 1-oxo-. methyl est,RHMQZRGDGZQGRB-UHFFFAOYSA-N,COC(=O)C1=CC2=CC=CC=C2C(=O)O1,020836-12-8,-3.4069,COC(=O)c1cc2ccccc2c(=O)o1
1032,B-4758,1-LAURYL-4-METHOXYCARBONYL-2-PYRROLIDONE,HTLJJHYQRUBBSY-UHFFFAOYSA-N,CCCCCCCCCCCCN1CC(CC1=O)C(=O)OC,101881-19-0,-4.376,CCCCCCCCCCCCN1CC(C(=O)OC)CC1=O
1033,B-4761,5.8-Quinolinedione. dioxime,YVDSKBBHJAJXEK-UHFFFAOYSA-N,C1=CC2=C(C=CC(=C2N=C1)NO)N=O,082153-77-3,-3.7998,O=Nc1ccc(NO)c2ncccc12
1034,B-4767,L-Mannitol. 6-deoxy-1.3:2.5-di-O-methylene-,FVGWXQIRZLHDBO-UHFFFAOYSA-N,CC1OCOC2COCOC2C1O,055645-89-1,-0.5625,CC1OCOC2COCOC2C1O
1035,B-4772,NAPHTHALENE. 1.8-DINITRO-,AVCSMMMOCOTIHF-UHFFFAOYSA-N,C1=CC2=C(C(=C1)[N+](=O)[O-])C(=CC=C2)[N+](=O)[O-],000602-38-0,-3.8073,O=[N+]([O-])c1cccc2cccc([N+](=O)[O-])c12
1036,B-4776,N-OXIDENICOTINIC ACID,FJCFFCXMEXZEIM-UHFFFAOYSA-N,C1=CC(=C[N+](=C1)[O-])C(=O)O,002398-81-4,-1.2983,O=C(O)c1ccc[n+]([O-])c1
1037,B-4784,Succinamic acid. N.N'-dipropyl-. ethyl ester,RKOVACICPIRRED-UHFFFAOYSA-N,CCCN(CCC)C(=O)CCC(=O)OCC,010143-31-4,-1.0956,CCCN(CCC)C(=O)CCC(=O)OCC
1038,B-4785,Butyrophenone. 4-[4-(p-fluorophenyl)-4-hydroxypi,IZGZADRFKHDVHC-UHFFFAOYSA-N,C1CN(CCC1(C2=CC=C(C=C2)F)O)CCCC(=O)C3=CC=CC=C3,095948-65-5,-4.3572,O=C(CCCN1CCC(O)(c2ccc(F)cc2)CC1)c1ccccc1
1039,B-4788,DINOCAP,SPFTUJJHNQXNEY-UHFFFAOYSA-N,CCCCCCCCC1=CC(=C(C(=C1)[N+](=O)[O-])OC(=O)C=CC)[N+](=O)[O-],039300-45-3,-4.9595,CC=CC(=O)Oc1c([N+](=O)[O-])cc(CCCCCCCC)cc1[N+](=O)[O-]
1040,B-4794,1.3.5-Triazine-2.4-diamine. N-(phenylmethyl)-,VWWIROAZLXEHMJ-UHFFFAOYSA-N,C1=CC=C(C=C1)CNC2=NC=NC(=N2)N,004086-63-9,-1.9058,Nc1ncnc(NCc2ccccc2)n1
1041,B-4806,5-AMINO-1H-TETRAZOLE,ULRPISSMEBPJLN-UHFFFAOYSA-N,C1(=NNN=N1)N,004418-61-5,-0.8506,Nc1nn[nH]n1
1042,B-4808,4-chloro-5-ethyl-2-methyl-N-[[4-(4-methylphenoxy)phenyl]methyl]pyrazole-3-carboxamide,WPALTCMYPARVNV-UHFFFAOYSA-N,CCC1=NN(C(=C1Cl)C(=O)NCC2=CC=C(C=C2)OC3=CC=C(C=C3)C)C,129558-76-5,-6.6446725,CCc1nn(C)c(C(=O)NCc2ccc(Oc3ccc(C)cc3)cc2)c1Cl
1043,B-4811,Penflufen,GOFJDXZZHFNFLV-UHFFFAOYSA-N,CC1=NN(C(=C1C(=O)NC2=CC=CC=C2C(C)CC(C)C)F)C,494793-67-8,-4.464180424,Cc1nn(C)c(F)c1C(=O)Nc1ccccc1C(C)CC(C)C
1044,B-4814,Butanedioic acid. propyl-. (.+-.)-,QLTZBYGZXPKHLF-UHFFFAOYSA-N,CCCC(CC(O)=O)C(O)=O,074708-88-6,-0.5297,CCCC(CC(=O)O)C(=O)O
1045,B-4818,1-Butanone. 1-(4-fluorophenyl)-4-[4-(4-fluorophe,XDFPJEPCZSJPQC-UHFFFAOYSA-N,C1CN(CCC1(C2=CC=C(C=C2)F)O)CCCC(=O)C3=CC=C(C=C3)F,000803-45-2,-4.1754,O=C(CCCN1CCC(O)(c2ccc(F)cc2)CC1)c1ccc(F)cc1
1046,B-4819,2.4.6(1H.3H.5H)-Pyrimidinetrione. 5-methyl-5-(2-,HQWTXYFZPXAATN-UHFFFAOYSA-N,CC(C)CC1(C(=O)NC(=O)NC1=O)C,053943-61-6,-2.0419,CC(C)CC1(C)C(=O)NC(=O)NC1=O
1047,B-4821,INDANOFAN,PMAAYIYCDXGUAP-UHFFFAOYSA-N,CCC1(C(=O)C2=CC=CC=C2C1=O)CC3(CO3)C4=CC(=CC=C4)Cl,133220-30-1,-4.3864,CCC1(CC2(c3cccc(Cl)c3)CO2)C(=O)c2ccccc2C1=O
1048,B-4822,2.4.6(1H.3H.5H)-Pyrimidinetrione. 5-(2-methylpro,JKOZKFJTOIXANY-UHFFFAOYSA-N,CCCC1(C(=O)NC(=O)NC1=O)CC(C)C,033492-49-8,-2.2577,CCCC1(CC(C)C)C(=O)NC(=O)NC1=O
1049,B-4824,Benzo[a]naphth[2.3-h]acridine-5.8.13(14H)-trione,UYDYTUHDRBBLFB-UHFFFAOYSA-N,C1=CC=C2C(=C1)C=CC3=C2C(=O)C4=C(N3)C5=C(C=C4)C(=O)C6=CC=CC=C6C5=O,003737-76-6,-7.958600016,O=C1c2ccccc2C(=O)c2c1ccc1c(=O)c3c(ccc4ccccc43)[nH]c21
1050,B-4828,Trifloxystrobin,ONCZDRURRATYFI-QTCHDTBASA-N,C/C(=N\OCC1=CC=CC=C1/C(=N/OC)/C(=O)OC)/C2=CC(=CC=C2)C(F)(F)F,141517-21-7,-5.825730695,CON=C(C(=O)OC)c1ccccc1CON=C(C)c1cccc(C(F)(F)F)c1
1051,B-4831,(dimethylsulfamoylamino)benzene,QCDQDISRALTLNQ-UHFFFAOYSA-N,CN(C)S(=O)(=O)NC1=CC=CC=C1,004710-17-2,-2.187640016,CN(C)S(=O)(=O)Nc1ccccc1
1052,B-4838,4-amino-6-tert-butyl-2H-1.2.4-triazine-3.5-dione,AHBXXEZLRFCZSF-UHFFFAOYSA-N,CC(C)(C)C1=NNC(=O)N(C1=O)N,056507-37-0,-2.047799551,CC(C)(C)c1n[nH]c(=O)n(N)c1=O
1053,B-4839,2.4.6(1H.3H.5H)-pyrimidinetrione. 5-(3-methylbut,RDYMEDVXKQMMHS-UHFFFAOYSA-N,CCCC1(C(=O)NC(=O)NC1=O)CCC(C)C,017013-42-2,-2.5954,CCCC1(CCC(C)C)C(=O)NC(=O)NC1=O
1054,B-4843,(2.2.2-trichloro-1-dimethoxyphosphorylethyl) butanoate,BKAQXYNWONVOAX-UHFFFAOYSA-N,CCCC(=O)OC(C(Cl)(Cl)Cl)P(=O)(OC)OC,000126-22-7,-3.049866112,CCCC(=O)OC(C(Cl)(Cl)Cl)P(=O)(OC)OC
1055,B-4845,2.4.6(1H.3H.5H)-Pyrimidinetrione. 5-butyl-5-(2-m,YHSQMQXOPCKTIG-UHFFFAOYSA-N,CCCCC1(C(=O)NC(=O)NC1=O)CC(C)C,053943-64-9,-2.5057,CCCCC1(CC(C)C)C(=O)NC(=O)NC1=O
1056,B-4847,(2.5-dichlorophenyl)sulfanylmethylsulfanyl-diethoxy-sulfanylidenephosphorane,GGNLTHFTYNDYNK-UHFFFAOYSA-N,CCOP(=S)(OCC)SCSC1=C(C=CC(=C1)Cl)Cl,002275-14-1,-6.933231942,CCOP(=S)(OCC)SCSc1cc(Cl)ccc1Cl
1057,B-4849,ethyl (2S)-2-(furan-2-carbonylamino)propanoate,OPKQHVFOHFHTAI-ZETCQYMHSA-N,CCOC(=O)[C@H](C)NC(=O)C1=CC=CO1,039978-21-7,-1.1036,CCOC(=O)C(C)NC(=O)c1ccco1
1058,B-4852,2-[3-(trifluoromethyl)phenoxy]pyridine-3-carboxylic acid,OBRGOFGSXWAVNZ-UHFFFAOYSA-N,C1=CC(=CC(=C1)OC2=C(C=CC=N2)C(=O)O)C(F)(F)F,036701-89-0,-2.839319053,O=C(O)c1cccnc1Oc1cccc(C(F)(F)F)c1
1059,B-4855,1H-2-Benzopyran-3-carboxylic acid. 1-oxo-,CRPAMTZHVXHTKH-UHFFFAOYSA-N,C1=CC=C2C(=C1)C=C(OC2=O)C(=O)O,002289-03-4,-2.4279,O=C(O)c1cc2ccccc2c(=O)o1
1060,B-4856,Chloranilic acid,IPPWILKGXFOXHO-UHFFFAOYSA-N,C1(=C(C(=O)C(=C(C1=O)Cl)O)Cl)O,000087-88-7,-2.0414,O=C1C(O)=C(Cl)C(=O)C(O)=C1Cl
1061,B-4857,Salicylic acid. 5-(2H-benzotriazol-2-yl)-,IPYHMQWSXUYBFX-UHFFFAOYSA-N,OC(=O)C1=CC(=CC=C1O)N1N=C2C=CC=CC2=N1,006245-33-6,-3.009,O=C(O)c1cc(-n2nc3ccccc3n2)ccc1O
1062,B-4863,Ethanol. 2.2'-thiobis-. diacetate,HWLINJPYLXLANY-UHFFFAOYSA-N,CC(=O)OCCSCCOC(=O)C,004275-28-9,-0.9808,CC(=O)OCCSCCOC(C)=O