,C_ID,Name,InChIKey,SMILES,CAS,LogS,smiles_canon
5070,B-10628,N-methyl-N-(4-methylphenyl)-2-[methyl-(2-piperidin-1-ylacetyl)amino]benzamide,BEZGENOGGHDVMM-UHFFFAOYSA-N,CC1CCC(CC1)N(C(=O)C1CCCCC1N(C(=O)CN1CCCCC1)C)C,055707-75-0,-5.455364717,CC1CCC(N(C)C(=O)C2CCCCC2N(C)C(=O)CN2CCCCC2)CC1
5071,B-10629,2-(dipentylamino)-N-[(Z)-(5-nitrofuran-2-yl)methylideneamino]acetamide,HWDPSQSTOIACSI-AQTBWJFISA-N,CCCCCN(CC(=O)N/N=C\C1CCC(O1)[N+](=O)[O-])CCCCC,033207-14-6,-5.237448864,CCCCCN(CCCCC)CC(=O)NN=CC1CCC([N+](=O)[O-])O1
5072,B-10631,4-Amino-N-phenylbenzamide,QHWDUJPWCGEBTH-UHFFFAOYSA-N,NC1CCC(CC1)C(=O)NC1CCCCC1,000782-45-6,-2.26994694,NC1CCC(C(=O)NC2CCCCC2)CC1
5073,B-10633,7-[(2R)-2.3-dihydroxypropyl]-1.3-dimethylpurine-2.6-dione,KSCFJBIXMNOVSH-ZCFIWIBFSA-N,OC[C@@H](CN1CNC2C1C(=O)N(C)C(=O)N2C)O,072376-78-4,-0.17,CN1C(=O)C2C(NCN2CC(O)CO)N(C)C1=O
5074,B-10634,1-methylquinazolin-4-one,QAXCWBIVFCEYGG-UHFFFAOYSA-N,CN1CNC(=O)C2C1CCCC2,003476-68-4,-1.434482122,CN1CNC(=O)C2CCCCC21
5075,B-10636,1-(2.4-dimethoxyphenyl)-3-(4-methoxyphenyl)prop-2-en-1-one,HVAKUYCEWDPRCA-UHFFFAOYSA-N,COC1CCC(CC1)C=CC(=O)C1CCC(CC1OC)OC,018493-30-6,-4.650387464,COC1CCC(C=CC(=O)C2CCC(OC)CC2OC)CC1
5076,B-10638,5-bromo-1.6-dimethyl-3-phenylpyrimidine-2.4-dione,ADTVPFMABWHJLN-UHFFFAOYSA-N,CC1N(C)C(=O)N(C(=O)C1Br)C1CCCCC1,032000-65-0,-1.938543255,CC1C(Br)C(=O)N(C2CCCCC2)C(=O)N1C
5077,B-10639,[4-(bis(2-bromoethyl)amino)phenyl] 4-methoxybenzoate,FZDWNMZVOSEQPI-UHFFFAOYSA-N,BrCCN(C1CCC(CC1)OC(=O)C1CCC(CC1)OC)CCBr,022953-40-8,-6.778685457,COC1CCC(C(=O)OC2CCC(N(CCBr)CCBr)CC2)CC1
5078,B-10640,3-amino-5-pyridin-4-yl-1H-pyridin-2-one,RNLQIBCLLYYYFJ-UHFFFAOYSA-N,O=C1[NH]CC(CC1N)C1CCNCC1,060719-84-8,-2.047001203,NC1CC(C2CCNCC2)CNC1=O
5079,B-10641,2-(hydroxymethyl)-2-[(4-methylphenoxy)methyl]propane-1.3-diol,KYBVWWVRKOYDNI-UHFFFAOYSA-N,OCC(COC1CCC(CC1)C)(CO)CO,064049-38-3,-2.121634705,CC1CCC(OCC(CO)(CO)CO)CC1
5080,B-10642,2-[2-(2-chlorophenyl)-1.3-benzoxazol-5-yl]propanoic acid,QYMZJNOJZPUILD-UHFFFAOYSA-N,OC(=O)C(C1CCC2C(C1)NC(O2)C1CCCCC1Cl)C,051234-72-1,-4.404065788,CC(C(=O)O)C1CCC2OC(C3CCCCC3Cl)NC2C1
5081,B-10643,2.6-diacetyloxy-3.5-dichloro-4-methylbenzoic acid,YOFROOKXIBMQTF-UHFFFAOYSA-N,CC(=O)OC1C(C(=O)O)C(OC(=O)C)C(C(C1Cl)C)Cl,063980-09-6,-3.584961932,CC(=O)OC1C(Cl)C(C)C(Cl)C(OC(C)=O)C1C(=O)O
5082,B-10645,2-pyrazin-2-ylbutanethioamide,SJLKYVVYUNFNBO-UHFFFAOYSA-N,CCC(C1CNCCN1)C(=S)N,032081-46-2,-1.607016774,CCC(C(N)=S)C1CNCCN1
5083,B-10646,3-(2-methoxyphenoxy)-2-methylpropane-1.2-diol,XRAILAIVPUNDJC-UHFFFAOYSA-N,OCC(COC1CCCCC1OC)(O)C,064049-42-9,-1.156575753,COC1CCCCC1OCC(C)(O)CO
5084,B-10647,2-chloro-10-[3-(dimethylamino)propyl]phenothiazine-3.7-diol,XEOKALCMOZKIBM-UHFFFAOYSA-N,CN(CCCN1C2CCC(CC2SC2C1CC(Cl)C(C2)O)O)C,014339-66-3,-5.894827561,CN(C)CCCN1C2CCC(O)CC2SC2CC(O)C(Cl)CC21
5085,B-10648,1-butyl-3-(1.3-oxazol-2-yl)urea,RXPBEGLIXKJVHJ-UHFFFAOYSA-N,CCCCNC(=O)NC1NCCO1,035629-47-1,-1.805069648,CCCCNC(=O)NC1NCCO1
5086,B-10649,1-[(3.4-diethoxyphenyl)methyl]-6.7-diethoxyisoquinoline,ZOWYFYXTIWQBEP-UHFFFAOYSA-N,CCOC1CCC(CC1OCC)CC1NCCC2C1CC(OCC)C(C2)OCC,213261-59-7,-6.664874605,CCOC1CCC(CC2NCCC3CC(OCC)C(OCC)CC32)CC1OCC
5087,B-10650,1-[4-[3-[4-(3.4-dimethylphenyl)piperazin-1-yl]-2-hydroxypropoxy]phenyl]propan-1-one,FOXWLWYGXYMRQO-UHFFFAOYSA-N,CCC(=O)C1CCC(CC1)OCC(CN1CCN(CC1)C1CCC(C(C1)C)C)O,063744-54-7,-4.248029138,CCC(=O)C1CCC(OCC(O)CN2CCN(C3CCC(C)C(C)C3)CC2)CC1
5088,B-10651,5-[2-(tert-butylamino)-1-hydroxyethyl]benzene-1.3-diol,XWTYSIMOBUGWOL-UHFFFAOYSA-N,OC(C1CC(O)CC(C1)O)CNC(C)(C)C,046719-29-3,-0.024766417,CC(C)(C)NCC(O)C1CC(O)CC(O)C1
5089,B-10652,N-(4-phenyl-1.3-oxazol-2-yl)acetamide,IHJCNWSMNSEGEK-UHFFFAOYSA-N,CC(=O)NC1OCC(N1)C1CCCCC1,035629-38-0,-2.129717813,CC(=O)NC1NC(C2CCCCC2)CO1
5090,B-10653,spiro[2.4-dihydro-1H-naphthalene-3.5'-imidazolidine]-2'.4'-dione,ZWYUGDUPLSGYSK-UHFFFAOYSA-N,O=C1NC(=O)C2(N1)CCC1C(C2)CCCC1,052094-70-9,-4.012716758,O=C1NC(=O)C2(CCC3CCCCC3C2)N1
5091,B-10655,4-decoxy-3.5-dimethoxybenzamide,REYUZOLYIOQRIG-UHFFFAOYSA-N,CCCCCCCCCCOC1C(OC)CC(CC1OC)C(=O)N,014817-09-5,-5.736671984,CCCCCCCCCCOC1C(OC)CC(C(N)=O)CC1OC
5092,B-10656,3-methyl-2-[2-(methyl-(phenylmethyl)amino)ethyl]-2-naphthalen-1-ylbutanamide,MXLCXWPNZGESLV-UHFFFAOYSA-N,CN(CC1CCCCC1)CCC(C1CCCC2C1CCCC2)(C(=O)N)C(C)C,001505-89-1,-6.120165975,CC(C)C(CCN(C)CC1CCCCC1)(C(N)=O)C1CCCC2CCCCC21
5093,B-10657,3-(4-methyl-2-propylphenoxy)propane-1.2-diol,OSVWSAJDSWJMAA-UHFFFAOYSA-N,CCCC1CC(C)CCC1OCC(CO)O,063991-80-0,-3.342229102,CCCC1CC(C)CCC1OCC(O)CO
5094,B-10660,4-dimethylamino-2-(2-dimethylaminoethyl)-2-naphthalen-1-ylbutanamide,WCORBEUIUCKPIG-UHFFFAOYSA-N,CN(CCC(C1CCCC2C1CCCC2)(C(=O)N)CCN(C)C)C,001944-71-4,-3.284725224,CN(C)CCC(CCN(C)C)(C(N)=O)C1CCCC2CCCCC21
5095,B-10661,2-imidazol-1-yl-1-phenylethanol,NTWZHQAXJSJOIB-UHFFFAOYSA-N,OC(C1CCCCC1)CN1CNCC1,024155-47-3,-1.655595512,OC(CN1CCNC1)C1CCCCC1
5096,B-10662,morpholin-4-yl-(3.4.5-trimethoxyphenyl)methanone,XWVOEFLBOSSYGM-UHFFFAOYSA-N,COC1CC(CC(C1OC)OC)C(=O)N1CCOCC1,000635-41-6,-0.931986201,COC1CC(C(=O)N2CCOCC2)CC(OC)C1OC
5097,B-10664,ethyl 2-[2-(3-dimethylaminopropoxy)-2-oxoethoxy]-6-methyl-3-propan-2-ylbenzoate,RKBPFDSABQZWQQ-UHFFFAOYSA-N,CCOC(=O)C1C(C)CCC(C1OCC(=O)OCCCN(C)C)C(C)C,053251-82-4,-4.386760474,CCOC(=O)C1C(C)CCC(C(C)C)C1OCC(=O)OCCCN(C)C
5098,B-10667,2-phenyl-2-pyrazin-2-ylethanethioamide,LLHDHYPYFLBISK-UHFFFAOYSA-N,NC(=S)C(C1CNCCN1)C1CCCCC1,032081-47-3,-1.266984245,NC(=S)C(C1CCCCC1)C1CNCCN1
5099,B-10668,6-[3-(dibutylamino)propylamino]quinoline-5.8-dione,DYIMWUCLECRKCE-UHFFFAOYSA-N,CCCCN(CCCC)CCCNC1=CC(=O)C2C(C1=O)CCCN2,035976-65-9,-3.616811995,CCCCN(CCCC)CCCNC1=CC(=O)C2NCCCC2C1=O
5100,B-10669,4-methyl-N-(3-methylpyridin-2-yl)benzamide,XKCKSAJWVZAVIO-UHFFFAOYSA-N,CC1CCC(CC1)C(=O)NC1NCCCC1C,036845-01-9,-3.073610903,CC1CCC(C(=O)NC2NCCCC2C)CC1
5101,B-10670,1-(4-nitrophenyl)-2-pyrrolidin-1-yliminoethanone,MMISGYGYGXBMMS-UHFFFAOYSA-N,O=C(C1CCC(CC1)[N+](=O)[O-])C=NN1CCCC1,025555-23-1,-2.620821619,O=C(C=NN1CCCC1)C1CCC([N+](=O)[O-])CC1
5102,B-10672,4-[ethyl-[1-(4-methoxyphenyl)propan-2-yl]amino]butyl 3.4-dimethoxybenzoate,VYVKHNNGDFVQGA-UHFFFAOYSA-N,COC1CCC(CC1)CC(N(CCCCOC(=O)C1CCC(C(C1)OC)OC)CC)C,002753-45-9,-5.694401029,CCN(CCCCOC(=O)C1CCC(OC)C(OC)C1)C(C)CC1CCC(OC)CC1
5103,B-10673,2-[2-(ethyl-methylamino)ethyl]-5-methyl-2-naphthalen-1-ylhex-4-enamide,BJFPXELCDQCHFX-UHFFFAOYSA-N,CCN(CCC(C1CCCC2C1CCCC2)(C(=O)N)CC=C(C)C)C,050765-88-3,-5.585069586,CCN(C)CCC(CC=C(C)C)(C(N)=O)C1CCCC2CCCCC21
5104,B-10676,1-[2-(2-hydroxy-3-propylaminopropoxy)phenyl]-3-phenylpropan-1-one,JWHAUXFOSRPERK-UHFFFAOYSA-N,CCCNCC(COC1CCCCC1C(=O)CCC1CCCCC1)O,107300-59-4,-3.563539839,CCCNCC(O)COC1CCCCC1C(=O)CCC1CCCCC1
5105,B-10677,5-bromo-2-(2-hydroxypropoxy)benzamide,GWNIMRXOQQOZJL-UHFFFAOYSA-N,CC(COC1CCC(CC1C(=O)N)Br)O,063887-03-6,-1.726968114,CC(O)COC1CCC(Br)CC1C(N)=O
5106,B-10678,5-bromo-2-(2-hydroxyethoxy)-N-methylbenzamide,SOBYBGYFETUFEY-UHFFFAOYSA-N,OCCOC1CCC(CC1C(=O)NC)Br,063887-02-5,-2.225743629,CNC(=O)C1CC(Br)CCC1OCCO
5107,B-10679,[3-hydroxy-2.2-di(phenyl)propyl] N-methylcarbamate,NSFWQVLIKNSZQT-UHFFFAOYSA-N,OCC(C1CCCCC1)(C1CCCCC1)COC(=O)NC,025384-56-9,-3.212329159,CNC(=O)OCC(CO)(C1CCCCC1)C1CCCCC1
5108,B-10681,2-[2-(2-methylphenyl)-1.3-benzoxazol-5-yl]propanoic acid,VGTADLXBZBVHSO-UHFFFAOYSA-N,OC(=O)C(C1CCC2C(C1)NC(O2)C1CCCCC1C)C,054785-37-4,-4.17272491,CC1CCCCC1C1NC2CC(C(C)C(=O)O)CCC2O1
5109,B-10682,ethyl 1-[2-(oxolan-2-ylmethoxy)ethyl]-4-phenylpiperidine-4-carboxylate,NNCOZXNZFLUYGG-UHFFFAOYSA-N,CCOC(=O)C1(CCN(CC1)CCOCC1CCCO1)C1CCCCC1,002385-81-1,-2.705484695,CCOC(=O)C1(C2CCCCC2)CCN(CCOCC2CCCO2)CC1
5110,B-10683,4-nitro-N-pyridin-4-ylbenzamide,PJMSJOVJUFYHTQ-UHFFFAOYSA-N,O=C(C1CCC(CC1)[N+](=O)[O-])NC1CCNCC1,013160-58-2,-2.97776289,O=C(NC1CCNCC1)C1CCC([N+](=O)[O-])CC1
5111,B-10684,2-[2-(1.3-benzodioxol-5-yl)-1.3-benzoxazol-5-yl]propanoic acid,GYPZUNUCQUOPSL-UHFFFAOYSA-N,OC(=O)C(C1CCC2C(C1)NC(O2)C1CCC2C(C1)OCO2)C,051234-64-1,-3.975973457,CC(C(=O)O)C1CCC2OC(C3CCC4OCOC4C3)NC2C1
5112,B-10685,2-(2-amino-4-arsorosophenoxy)ethanol,ULYJKALLWCFWKP-UHFFFAOYSA-N,OCCOC1CCC(CC1N)[As]=O,064048-94-8,-1.514201286,NC1CC([As]=O)CCC1OCCO
5113,B-10686,3-(phenylmethoxy)propane-1.2-diol,LWCIBYRXSHRIAP-UHFFFAOYSA-N,OCC(COCC1CCCCC1)O,004799-67-1,-1.007740604,OCC(O)COCC1CCCCC1
5114,B-10687,1-[2-[2-hydroxy-3-[4-(2-methoxyphenyl)piperazin-1-yl]propoxy]phenyl]ethanone,LUKBTGVFHUVGRT-UHFFFAOYSA-N,COC1CCCCC1N1CCN(CC1)CC(COC1CCCCC1C(=O)C)O,063990-74-9,-2.875599286,COC1CCCCC1N1CCN(CC(O)COC2CCCCC2C(C)=O)CC1
5115,B-10688,(1R.9S.10S)-3-hydroxy-4.12-dimethoxy-17-methyl-17-azatetracyclo[7.5.3.01.10.02.7]heptadeca-2(7).3.5.11-tetraen-13-one,INYYVPJSBIVGPH-QHRIQVFBSA-N,COC1=C[C@@H]2[C@@H]3CC4C([C@@]2(CC1=O)CCN3C)C(O)C(CC4)OC,000115-53-7,-1.76836856,COC1=CC2C3CC4CCC(OC)C(O)C4C2(CCN3C)CC1=O
5116,B-10689,2-[3-(2-sulfosulfanylethylamino)propoxy]-4-(trifluoromethyl)quinoline,WHHJVZWAZFDIMO-UHFFFAOYSA-N,OS(=O)(=O)SCCNCCCOC1NC2CCCCC2C(C1)C(F)(F)F,041287-23-4,-3.143412838,O=S(=O)(O)SCCNCCCOC1CC(C(F)(F)F)C2CCCCC2N1
5117,B-10690,2-[4-(4-chlorophenyl)piperazin-1-yl]ethyl (E)-3-pyridin-2-ylprop-2-enoate,BBSJPRAFZYZZGW-RMKNXTFCSA-N,O=C(/C=C/C1CCCCN1)OCCN1CCN(CC1)C1CCC(CC1)Cl,004415-51-4,-3.659227684,O=C(C=CC1CCCCN1)OCCN1CCN(C2CCC(Cl)CC2)CC1
5118,B-10691,(4-hydrazinylphthalazin-1-yl)hydrazine,VQKLRVZQQYVIJW-UHFFFAOYSA-N,NNC1NNC(C2C1CCCC2)NN,000484-23-1,0.054616777,NNC1NNC(NN)C2CCCCC12
5119,B-10692,2-(4-butoxy-3-methylphenyl)acetamide,RTARBDNVQPTOHY-UHFFFAOYSA-N,CCCCOC1CCC(CC1C)CC(=O)N,005100-03-8,-5.481064037,CCCCOC1CCC(CC(N)=O)CC1C
5120,B-10693,1-[3-[(E)-3-(3-nitrophenyl)prop-2-enyl]-3.8-diazabicyclo[3.2.1]octan-8-yl]propan-1-one,WPKXQUCVSYGYFP-GQCTYLIASA-N,CCC(=O)N1C2CCC1CN(C2)C/C=C/C1CCCC(C1)[N+](=O)[O-],063990-46-5,-4.218870505,CCC(=O)N1C2CCC1CN(CC=CC1CCCC([N+](=O)[O-])C1)C2
5121,B-10694,1-[2-[2-hydroxy-3-[4-[3-(trifluoromethyl)phenyl]piperazin-1-yl]propoxy]phenyl]ethanone,DWTDGCXSUCRGEH-UHFFFAOYSA-N,OC(CN1CCN(CC1)C1CCCC(C1)C(F)(F)F)COC1CCCCC1C(=O)C,063990-53-4,-3.905613955,CC(=O)C1CCCCC1OCC(O)CN1CCN(C2CCCC(C(F)(F)F)C2)CC1
5122,B-10695,2-phenanthren-9-ylpropanoic acid,KDSPHRIFRARIST-UHFFFAOYSA-N,OC(=O)C(C1CC2CCCCC2C2C1CCCC2)C,040452-19-5,-5.326573637,CC(C(=O)O)C1CC2CCCCC2C2CCCCC12
5123,B-10696,2-[4-(hydroxy-oxidoamino)phenyl]butanoic acid,XBGNOMBPRQVJSR-UHFFFAOYSA-N,CCC(C1CCC(CC1)[N+](=O)[O-])C(=O)O,007463-53-8,-2.562409134,CCC(C(=O)O)C1CCC([N+](=O)[O-])CC1
5124,B-10697,2-(1-methylpiperidin-4-yl)-5-phenyl-4-(phenylmethyl)-1H-pyrazol-3-one,KMGARVOVYXNAOF-UHFFFAOYSA-N,CN1CCC(CC1)N1[NH]C(C(C1=O)CC1CCCCC1)C1CCCCC1,000053-89-4,-4.659636824,CN1CCC(N2NC(C3CCCCC3)C(CC3CCCCC3)C2=O)CC1
5125,B-10699,2-[(3R)-2.6-dioxopiperidin-3-yl]isoindole-1.3-dione,UEJJHQNACJXSKW-SECBINFHSA-N,O=C1CC[C@H](C(=O)N1)N1C(=O)C2C(C1=O)CCCC2,002614-06-4,-2.6800001,O=C1CCC(N2C(=O)C3CCCCC3C2=O)C(=O)N1
5126,B-10702,2-(4-chlorophenyl)-3-furan-2-ylpropanoic acid,DABUAUJNVONJSH-UHFFFAOYSA-N,OC(=O)C(C1CCC(CC1)Cl)CC1CCCO1,003459-56-1,-3.680614515,O=C(O)C(CC1CCCO1)C1CCC(Cl)CC1
5127,B-10703,1-[2-(2.3-dihydroxypropoxy)phenyl]butan-1-one,WPXOLBJHNULPQA-UHFFFAOYSA-N,CCCC(=O)C1CCCCC1OCC(CO)O,063834-65-1,-2.237213973,CCCC(=O)C1CCCCC1OCC(O)CO
5128,B-10704,1.4-di(phenyl)pyrazolidine-3.5-dione,ZZMSHBOVYPIYOB-UHFFFAOYSA-N,O=C1NN(C(=O)C1C1CCCCC1)C1CCCCC1,003426-01-5,-3.595419431,O=C1NN(C2CCCCC2)C(=O)C1C1CCCCC1
5129,B-10707,2-hydroxy-N-(2-hydroxyethyl)-3-phenylbenzamide,BJLUMCCGHWLDON-UHFFFAOYSA-N,OCCNC(=O)C1CCCC(C1O)C1CCCCC1,063992-48-3,-2.45377264,O=C(NCCO)C1CCCC(C2CCCCC2)C1O
5130,B-10708,(2S)-2-amino-N-(1.2.3.4-tetrahydronaphthalen-2-yl)propanamide,DSSRNNGLLCLIPR-QHGLUPRGSA-N,O=C([C@@H](N)C)NC1CCC2C(C1)CCCC2,014329-69-2,-2.143154083,CC(N)C(=O)NC1CCC2CCCCC2C1
5131,B-10711,(2-carbamoyl-6-phenylphenyl) acetate,JTVVOOSCIQPAQH-UHFFFAOYSA-N,CC(=O)OC1C(CCCC1C1CCCCC1)C(=O)N,063887-49-0,-2.228027918,CC(=O)OC1C(C(N)=O)CCCC1C1CCCCC1
5132,B-10713,N-(3-methylpyridin-2-yl)benzamide,JJBRLTIVSDLEJK-UHFFFAOYSA-N,O=C(C1CCCCC1)NC1NCCCC1C,023612-46-6,-2.505338263,CC1CCCNC1NC(=O)C1CCCCC1
5133,B-10714,3-(3-nitrophenoxy)propane-1.2-diol,HJYXCTLKGAOVHQ-UHFFFAOYSA-N,OCC(COC1CCCC(C1)[N+](=O)[O-])O,063991-99-1,-1.724538739,O=[N+]([O-])C1CCCC(OCC(O)CO)C1
5134,B-10715,[(3S.8S.9S.10R.13R.14S.17R)-10.13-dimethyl-17-[(2R)-6-methylheptan-2-yl]-2.3.4.7.8.9.11.12.14.15.16.17-dodecahydro-1H-cyclopenta[a]phenanthren-3-yl] 2-[4-[bis(2-chloroethyl)amino]phenyl]acetate,SPJCRMJCFSJKDE-ZWBUGVOYSA-N,ClCCN(C1CCC(CC1)CC(=O)O[C@H]1CC[C@]2(C(=CC[C@@H]3[C@@H]2CC[C@]2([C@H]3CC[C@@H]2[C@@H](CCCC(C)C)C)C)C1)C)CCCl,003546-10-9,-14.5238657,CC(C)CCCC(C)C1CCC2C3CC=C4CC(OC(=O)CC5CCC(N(CCCl)CCCl)CC5)CCC4(C)C3CCC12C
5135,B-10716,[4-(bis(2-bromoethyl)amino)phenyl] 3-methylbenzoate,GWEJBHPUPOEHFW-UHFFFAOYSA-N,BrCCN(C1CCC(CC1)OC(=O)C1CCCC(C1)C)CCBr,022954-15-0,-7.060267843,CC1CCCC(C(=O)OC2CCC(N(CCBr)CCBr)CC2)C1
5136,B-10717,5-(hydroxymethyl)-3-(3-methylphenyl)-1.3-oxazolidin-2-one,MXUNKHLAEDCYJL-UHFFFAOYSA-N,OCC1OC(=O)N(C1)C1CCCC(C1)C,029218-27-7,-2.236546064,CC1CCCC(N2CC(CO)OC2=O)C1
5137,B-10718,methyl N-(1-hydroxy-2.3-dimethoxy-6.7.8.9-tetrahydro-5H-benzo[7]annulen-8-yl)carbamate,PWFIXEFPEFAERD-UHFFFAOYSA-N,COC(=O)NC1CCCC2C(C1)C(O)C(C(C2)OC)OC,050823-52-4,-2.926246859,COC(=O)NC1CCCC2CC(OC)C(OC)C(O)C2C1
5138,B-10719,(2-hydroxy-2-phenylethyl) carbamate,OCSOHUROTFFTFO-UHFFFAOYSA-N,OC(C1CCCCC1)COC(=O)N,000094-35-9,-0.816127439,NC(=O)OCC(O)C1CCCCC1
5139,B-10720,9-[4-(4-chlorophenyl)-4-oxobutyl]-5-ethyl-1-oxa-3.9-diazaspiro[5.5]undecan-2-one,VIDAVEJTWOLBOO-UHFFFAOYSA-N,CCC1CNC(=O)OC21CCN(CC2)CCCC(=O)C1CCC(CC1)Cl,054981-21-4,-4.514063177,CCC1CNC(=O)OC12CCN(CCCC(=O)C1CCC(Cl)CC1)CC2
5140,B-10721,methyl 3-sulfamoylthiophene-2-carboxylate,PMXNPOJHBQDJKS-UHFFFAOYSA-N,COC(=O)C1SCCC1S(=O)(=O)N,059337-93-8,-0.837017593,COC(=O)C1SCCC1S(N)(=O)=O
5141,B-10722,(7-chloro-1-methyl-2-oxo-5-phenyl-3H-1.4-benzodiazepin-3-yl) N.N-dimethylcarbamate,PXBVEXGRHZFEOF-UHFFFAOYSA-N,ClC1CCC2C(C1)C(=NC(C(=O)N2C)OC(=O)N(C)C)C1CCCCC1,036104-80-0,-4.393374946,CN(C)C(=O)OC1N=C(C2CCCCC2)C2CC(Cl)CCC2N(C)C1=O
5142,B-10725,2-[(4-methyl-2-nitrophenyl)hydrazinylidene]propanedinitrile,RPVSMPDRWQVGJR-UHFFFAOYSA-N,N#CC(=NNC1CCC(CC1[N+](=O)[O-])C)C#N,064691-87-8,-3.397559333,CC1CCC(NN=C(C#N)C#N)C([N+](=O)[O-])C1
5143,B-10727,2-hydroxy-N-[3-(trifluoromethyl)phenyl]benzamide,WQDAVGDBWHWDSC-UHFFFAOYSA-N,O=C(C1CCCCC1O)NC1CCCC(C1)C(F)(F)F,000587-49-5,-4.309188753,O=C(NC1CCCC(C(F)(F)F)C1)C1CCCCC1O
5144,B-10729,5-amino-N-butyl-2-prop-2-ynoxybenzamide,DXHYQIJBUNRPJT-UHFFFAOYSA-N,CCCCNC(=O)C1CC(N)CCC1OCC#C,030653-83-9,-2.592969511,C#CCOC1CCC(N)CC1C(=O)NCCCC
5145,B-10730,4-(trifluoromethyl)benzenesulfonamide,TVHXQQJDMHKGGK-UHFFFAOYSA-N,FC(C1CCC(CC1)S(=O)(=O)N)(F)F,000830-43-3,-1.981471596,NS(=O)(=O)C1CCC(C(F)(F)F)CC1
5146,B-10731,methyl (E)-2-[(3R.6'R.7'S.8'aS)-6'-ethyl-2-oxospiro[1H-indole-3.1'-3.5.6.7.8.8a-hexahydro-2H-indolizine]-7'-yl]-3-methoxyprop-2-enoate,DAXYUDFNWXHGBE-KAXDATADSA-N,CO/C=C(\[C@H]1C[C@@H]2N(C[C@@H]1CC)CC[C@@]12C(=O)NC2C1CCCC2)/C(=O)OC,000076-66-4,-4.891670101,CCC1CN2CCC3(C(=O)NC4CCCCC43)C2CC1C(=COC)C(=O)OC
5147,B-10732,(E)-N-hydroxy-2-methyl-3-(4-pentoxyphenyl)prop-2-enamide,NYOXUFIGYAMVOL-VAWYXSNFSA-N,CCCCCOC1CCC(CC1)/C=C(/C(=O)NO)\C,026228-15-9,-4.387088145,CCCCCOC1CCC(C=C(C)C(=O)NO)CC1
5148,B-10734,3.4-dimethoxy-N-(2-propyl-3.4-dihydro-1H-isoquinolin-5-yl)benzamide,DQTVKTMIXALQNO-UHFFFAOYSA-N,CCCN1CCC2C(C1)CCCC2NC(=O)C1CCC(C(C1)OC)OC,037481-32-6,-4.114986089,CCCN1CCC2C(CCCC2NC(=O)C2CCC(OC)C(OC)C2)C1
5149,B-10735,5-methyl-1H-[1.2.4]triazolo[5.1-b]pyrimidin-7-one,INVVMIXYILXINW-UHFFFAOYSA-N,CC1CC(=O)N2C(N1)NC[NH]2,002503-56-2,-1.347186853,CC1CC(=O)N2NCNC2N1
5150,B-10736,N-[(3-hydroxyphenyl)methylideneamino]pyridine-4-carboxamide,WJVBIMBJLVWPNE-OQLLNIDSSA-N,OC1CCCC(C1)/C=N/NC(=O)C1CCNCC1,000840-80-2,-1.329388879,O=C(NN=CC1CCCC(O)C1)C1CCNCC1
5151,B-10737,methyl 2-[2-hydroxy-3-(propan-2-ylamino)propoxy]-6-methyl-3-propan-2-ylbenzoate,JNLHPPFPJXHLKE-UHFFFAOYSA-N,COC(=O)C1C(C)CCC(C1OCC(CNC(C)C)O)C(C)C,053206-80-7,-3.333693083,COC(=O)C1C(C)CCC(C(C)C)C1OCC(O)CNC(C)C
5152,B-10738,4-[5-(4-cyano-2-methylbutan-2-yl)-[1.3]thiazolo[5.4-d][1.3]thiazol-2-yl]-4-methylpentanenitrile,WNGYDTQZWXGHTI-UHFFFAOYSA-N,N#CCCC(C1NC2C(S1)NC(S2)C(CCC#N)(C)C)(C)C,032563-71-6,-5.317650781,CC(C)(CCC#N)C1NC2SC(C(C)(C)CCC#N)NC2S1
5153,B-10739,2.5-dihydroxy-N-methylbenzamide,WQZUEUHQLFUVOF-UHFFFAOYSA-N,CNC(=O)C1CC(O)CCC1O,063938-50-1,-0.712597744,CNC(=O)C1CC(O)CCC1O
5154,B-10740,3-[2-(hydroxymethyl)phenoxy]propane-1.2-diol,NEGSZULJUBFMHT-UHFFFAOYSA-N,OCC(COC1CCCCC1CO)O,064049-34-9,-0.255750405,OCC(O)COC1CCCCC1CO
5155,B-10742,6-amino-1-ethyl-3-propylpyrimidine-2.4-dione,YPSQTTRYMSZAGR-UHFFFAOYSA-N,CCCN1C(=O)CC(N(C1=O)CC)N,063981-31-7,-2.13362261,CCCN1C(=O)CC(N)N(CC)C1=O
5156,B-10743,2-(4-butoxyphenyl)-N-hydroxybutanamide,LNAOLPBKJQWTOC-UHFFFAOYSA-N,CCCCOC1CCC(CC1)C(C(=O)NO)CC,015560-24-4,-3.497147432,CCCCOC1CCC(C(CC)C(=O)NO)CC1
5157,B-10745,5-(5-nitrofuran-2-yl)-1.3.4-thiadiazol-2-amine,SXZZHGJWUBJKHH-UHFFFAOYSA-N,[O-][N+](=O)C1CCC(O1)C1NNC(S1)N,000712-68-5,-2.994272126,NC1NNC(C2CCC([N+](=O)[O-])O2)S1
5158,B-10746,2-[2-[(4-ethoxyphenyl)methyl]-5-nitrobenzimidazol-1-yl]-N.N-diethylethanamine,PXDBZSCGSQSKST-UHFFFAOYSA-N,CCOC1CCC(CC1)CC1NC2C(N1CCN(CC)CC)CCC(C2)[N+](=O)[O-],000911-65-9,-5.833086544,CCOC1CCC(CC2NC3CC([N+](=O)[O-])CCC3N2CCN(CC)CC)CC1
5159,B-10748,(3-chlorophenyl)phosphonic acid,KPRMTLXLUPSXMR-UHFFFAOYSA-N,ClC1CCCC(C1)P(=O)(O)O,005431-34-5,-1.599664328,O=P(O)(O)C1CCCC(Cl)C1
5160,B-10749,N-(4-ethoxy-2-hydroxyphenyl)acetamide,CFLMLQJYYALAPD-UHFFFAOYSA-N,CCOC1CCC(C(C1)O)NC(=O)C,004665-04-7,-1.643136889,CCOC1CCC(NC(C)=O)C(O)C1
5161,B-10750,2-amino-N-(3-methylpyridin-2-yl)benzamide,NNHSMCWCONKKMB-UHFFFAOYSA-N,CC1CCCNC1NC(=O)C1CCCCC1N,036844-99-2,-2.61617369,CC1CCCNC1NC(=O)C1CCCCC1N
5162,B-10751,3-(4-amino-2-methylphenoxy)propane-1.2-diol,WFLFOFDFIHOEFA-UHFFFAOYSA-N,OCC(COC1CCC(CC1C)N)O,063905-26-0,-1.056935657,CC1CC(N)CCC1OCC(O)CO
5163,B-10752,1-[3-[(E)-3-(2-nitrophenyl)prop-2-enyl]-3.8-diazabicyclo[3.2.1]octan-8-yl]propan-1-one,GXGLAIVPXZPYBU-FNORWQNLSA-N,CCC(=O)N1C2CCC1CN(C2)C/C=C/C1CCCCC1[N+](=O)[O-],063990-47-6,-4.218870505,CCC(=O)N1C2CCC1CN(CC=CC1CCCCC1[N+](=O)[O-])C2
5164,B-10753,1-[4-(2.3-dihydroxypropoxy)-3-methoxyphenyl]propan-1-one,SUTGJZFFEVGULT-UHFFFAOYSA-N,OCC(COC1CCC(CC1OC)C(=O)CC)O,001087-06-5,-1.563330814,CCC(=O)C1CCC(OCC(O)CO)C(OC)C1
5165,B-10754,4-amino-N-(6-methylpyridin-2-yl)benzamide,OJJAQNZSNFIQSA-UHFFFAOYSA-N,NC1CCC(CC1)C(=O)NC1CCCC(N1)C,036845-08-6,-2.3112134,CC1CCCC(NC(=O)C2CCC(N)CC2)N1
5166,B-10756,4-(hydroxymethyl)-2-methyl-5-(sulfanylmethyl)pyridin-3-ol,JXYDRIBYAKJTIW-UHFFFAOYSA-N,OCC1C(CS)CNC(C1O)C,000703-46-8,-1.660282094,CC1NCC(CS)C(CO)C1O
5167,B-10757,2-[5-(4-aminophenoxy)pentyl]isoindole-1.3-dione,GIIGAFADHXYOPM-UHFFFAOYSA-N,NC1CCC(CC1)OCCCCCN1C(=O)C2C(C1=O)CCCC2,001673-06-9,-4.785632519,NC1CCC(OCCCCCN2C(=O)C3CCCCC3C2=O)CC1
5168,B-10758,9-aminoacridine-2-carbonitrile,UZGWBNJMOBHHIU-UHFFFAOYSA-N,N#CC1CCC2C(C1)C(N)C1C(N2)CCCC1,064046-76-0,-3.83850652,N#CC1CCC2NC3CCCCC3C(N)C2C1
5169,B-10759,1-[4-(2.3-dihydroxypropoxy)phenyl]ethanone,WLBDHRQPFMZSBF-UHFFFAOYSA-N,OCC(COC1CCC(CC1)C(=O)C)O,063905-16-8,-1.195587826,CC(=O)C1CCC(OCC(O)CO)CC1
5170,B-10761,2-(3-chloro-4-hydroxyphenyl)acetic acid,IYTUKSIOQKTZEG-UHFFFAOYSA-N,OC(=O)CC1CCC(C(C1)Cl)O,033697-81-3,-0.946608237,O=C(O)CC1CCC(O)C(Cl)C1
5171,B-10762,2.3-Dihydrophthalazine-1.4-dione,KGLPWQKSKUVKMJ-UHFFFAOYSA-N,O=C1[NH][NH]C(=O)C2C1CCCC2,134434-36-9,-1.788307643,O=C1NNC(=O)C2CCCCC12
5172,B-10764,2-[2-(3.4-dimethylphenyl)-2-oxoethyl]benzoic acid,ZOOUBGRVRUUFQX-UHFFFAOYSA-N,O=C(C1CCC(C(C1)C)C)CC1CCCCC1C(=O)O,050439-02-6,-4.586030873,CC1CCC(C(=O)CC2CCCCC2C(=O)O)CC1C
5173,B-10765,8-chloro-1-phenyl-5H-1.5-benzodiazepine-2.4-dione,RRTVVRIFVKKTJK-UHFFFAOYSA-N,O=C1CC(=O)N(C2C(N1)CCC(C2)Cl)C1CCCCC1,022316-55-8,-2.996552572,O=C1CC(=O)N(C2CCCCC2)C2CC(Cl)CCC2N1
5174,B-10767,1-[10-[3-[4-(2-hydroxyethyl)piperidin-1-yl]propyl]phenothiazin-2-yl]ethanone,BTFMCMVEUCGQDX-UHFFFAOYSA-N,OCCC1CCN(CC1)CCCN1C2CCCCC2SC2C1CC(CC2)C(=O)C,003819-00-9,-6.603942652,CC(=O)C1CCC2SC3CCCCC3N(CCCN3CCC(CCO)CC3)C2C1