,C_ID,Name,InChIKey,SMILES,CAS,LogS,smiles_canon
1063,B-4867,2.3.5.6-Tetrachloroterephthalic acid,KZCBXHSWMMIEQU-UHFFFAOYSA-N,C1(=C(C(=C(C(=C1Cl)Cl)C(=O)O)Cl)Cl)C(=O)O,002136-79-0,-1.720822011,O=C(O)c1c(Cl)c(Cl)c(C(=O)O)c(Cl)c1Cl
1064,B-4868,2-Butenedioic acid. 2-methyl-. 1-ethyl ester. (E,HWQBUJSWKVPMFY-SNAWJCMRSA-N,CCOC(=O)/C(=C/C(=O)O)/C,089966-38-1,-1.0259,CCOC(=O)C(C)=CC(=O)O
1065,B-4871,2.4(1H.3H)-Pteridinedione. 6-acetyl-1.3.7-trimet,QIICXDUQNHXBDB-UHFFFAOYSA-N,CN1C(=O)N(C)C2=C(N=C(C(C)=O)C(C)=N2)C1=O,094591-19-2,-2.0727,CC(=O)c1nc2c(=O)n(C)c(=O)n(C)c2nc1C
1066,B-4878,(S)-penthiopyrad,PFFIDZXUXFLSSR-JTQLQIEISA-N,CC(C)C[C@H](C)C1=C(NC(=O)C2=CN(C)N=C2C(F)(F)F)C=CS1,183675-82-3,-4.678783097,CC(C)CC(C)c1sccc1NC(=O)c1cn(C)nc1C(F)(F)F
1067,B-4879,Heptanoic acid. 2.4-dioxo-,HCKUOPXBZCRCKN-UHFFFAOYSA-N,CCCC(=O)CC(=O)C(=O)O,060415-20-5,-0.6193,CCCC(=O)CC(=O)C(=O)O
1068,B-4885,1.3.7-trimethyl-5H-pyrimido[5.4-d]pyrimidine-2.4.6.8-tetrone,VQCVHJARCQUUGP-UHFFFAOYSA-N,CN1C(=O)NC2=C(N(C)C(=O)N(C)C2=O)C1=O,092876-74-9,-3.7642,Cn1c(=O)[nH]c2c(=O)n(C)c(=O)n(C)c2c1=O
1069,B-4891,Propanedioic acid. diethyl-,LTMRRSWNXVJMBA-UHFFFAOYSA-N,CCC(CC)(C(=O)O)C(=O)O,000510-20-3,0.6083,CCC(CC)(C(=O)O)C(=O)O
1070,B-4892,Hexanoic acid. 2.4-dioxo-,NHHNHTOJLYTZLF-UHFFFAOYSA-N,CCC(=O)CC(=O)C(=O)O,004383-93-1,-0.3953,CCC(=O)CC(=O)C(=O)O
1071,B-4894,Butanedioic acid. trimethyl-,KJDGGLOKWHMBOX-UHFFFAOYSA-N,CC(C(=O)O)C(C)(C)C(=O)O,002103-16-4,-0.2237,CC(C(=O)O)C(C)(C)C(=O)O
1072,B-4901,Propanoic acid. 2-hydroxy-2-methyl-. 2-phenyleth,KMIPJIHGWNMYRS-UHFFFAOYSA-N,CC(C)(C(=O)OCCC1=CC=CC=C1)O,010290-01-4,-1.6196,CC(C)(O)C(=O)OCCc1ccccc1
1073,B-4908,3H-Pyrazol-3-one. 1.2-dihydro-5-methyl-1.2-diphe,CUKIVZPMDBQMFQ-UHFFFAOYSA-N,CC1=CC(=O)N(N1C2=CC=CC=C2)C3=CC=CC=C3,052128-85-5,-3.0974,Cc1cc(=O)n(-c2ccccc2)n1-c1ccccc1
1074,B-4912,4-methoxynaphthalene-1-carboxylic acid,WRQHSQDGYYDRMX-UHFFFAOYSA-N,COC1=CC=C(C2=CC=CC=C21)C(=O)O,013041-62-8,-4.08307463,COc1ccc(C(=O)O)c2ccccc12
1075,B-4916,4-NONYLPHENYL DIPHENYL PHOSPATE,LMCLPMXCYFSRNG-UHFFFAOYSA-N,CCCCCCCCCC1=CC=C(C=C1)OP(=O)(OC2=CC=CC=C2)OC3=CC=CC=C3,064532-97-4,-5.769,CCCCCCCCCc1ccc(OP(=O)(Oc2ccccc2)Oc2ccccc2)cc1
1076,B-4917,5-chloro-1.3-dimethyl-N-(1.1.3-trimethyl-3H-2-benzofuran-4-yl)pyrazole-4-carboxamide,NRTLIYOWLVMQBO-UHFFFAOYSA-N,CC1C2=C(C=CC=C2NC(=O)C3=C(N(N=C3C)C)Cl)C(O1)(C)C,123572-88-3,-3.116968139,Cc1nn(C)c(Cl)c1C(=O)Nc1cccc2c1C(C)OC2(C)C
1077,B-4926,5.5-(SPIROCYCLOHEXYL)THIOBARBITURIC  ACID;  5.5-Spiropentamethylene-2-thiobarbituric acid,XIOUPQUYEUYPAW-UHFFFAOYSA-N,C1CCC2(CC1)C(=O)NC(=NC2=O)S,000052-45-9,-3.46,O=C1N=C(S)NC(=O)C12CCCCC2
1078,B-4929,2.4.6(1H.3H.5H)-Pyrimidinetrione. 5-butyl-5-meth,XJBUMFHGCCXBNP-UHFFFAOYSA-N,CCCCC1(C(=O)NC(=O)NC1=O)C,053943-60-5,-2.0419,CCCCC1(C)C(=O)NC(=O)NC1=O
1079,B-4934,2.4.6(1H.3H.5H)-PYRIMIDINETRIONE. 5-METHYL-5-(3-,RGFAQSMJEZWLDS-UHFFFAOYSA-N,CC(C)CCC1(C(=O)NC(=O)NC1=O)C,067051-30-3,-2.4238,CC(C)CCC1(C)C(=O)NC(=O)NC1=O
1080,B-4938,[1-(dimethylcarbamoyl)-5-methylpyrazol-3-yl] N.N-dimethylcarbamate,RDBIYWSVMRVKSG-UHFFFAOYSA-N,CC1=CC(=NN1C(=O)N(C)C)OC(=O)N(C)C,000644-64-4,-0.062620668,Cc1cc(OC(=O)N(C)C)nn1C(=O)N(C)C
1081,B-4941,2-(4-fluorophenyl)-1-(1.2.4-triazol-1-yl)-3-trimethylsilylpropan-2-ol,YABFPHSQTSFWQB-UHFFFAOYSA-N,C[Si](C)(C)CC(CN1C=NC=N1)(C2=CC=C(C=C2)F)O,149508-90-7,-3.707810027,C[Si](C)(C)CC(O)(Cn1cncn1)c1ccc(F)cc1
1082,B-4943,thyl 5-[(2S.3R.7R.8S)-1.2.3.4.6.7.8.9.10.10-decachloro-5-hydroxy-5-pentacyclo[5.3.0.02.6.03.9.04.8]decanyl]-4-oxopentanoate,POSKOXIJDWDKPH-NDCAYZHYSA-N,CCOC(=O)CCC(=O)CC1(O)C2(Cl)[C@]3(Cl)[C@@]4(Cl)C5(Cl)[C@@](Cl)([C@@]2(Cl)C3(Cl)C5(Cl)Cl)C14Cl,004234-79-1,-5.062280659,CCOC(=O)CCC(=O)CC1(O)C2(Cl)C3(Cl)C4(Cl)C(Cl)(Cl)C5(Cl)C3(Cl)C1(Cl)C5(Cl)C42Cl
1083,B-4952,TRICAPROIN,MAYCICSNZYXLHB-UHFFFAOYSA-N,CCCCCC(=O)OCC(COC(=O)CCCCC)OC(=O)CCCCC,000621-70-5,-5.934,CCCCCC(=O)OCC(COC(=O)CCCCC)OC(=O)CCCCC
1084,B-4956,1.5-DIPHENYLTHIOCARBAZONE,UOFGSWVZMUXXIY-UHFFFAOYSA-N,C1=CC=C(C=C1)NN=C(N=NC2=CC=CC=C2)S,030827-05-5,-6.610000001,SC(N=Nc1ccccc1)=NNc1ccccc1
1085,B-4957,(2.4-dinitro-6-octylphenyl) (E)-but-2-enoate,PMSYHBINVYHTNN-ONNFQVAWSA-N,CCCCCCCCC1=C(C(=CC(=C1)[N+](=O)[O-])[N+](=O)[O-])OC(=O)/C=C/C,000131-72-6,-6.167123589,CC=CC(=O)Oc1c(CCCCCCCC)cc([N+](=O)[O-])cc1[N+](=O)[O-]
1086,B-4962,Benzoic acid. 2-amino-3.5-dinitro-,RLIOZFXFZKCBIG-UHFFFAOYSA-N,C1=C(C=C(C(=C1C(=O)O)N)[N+](=O)[O-])[N+](=O)[O-],000609-97-2,-3.101,Nc1c(C(=O)O)cc([N+](=O)[O-])cc1[N+](=O)[O-]
1087,B-4964,Benzenepropanoic acid. .alpha.-ethyl-.beta.-hydr,DWAHQOXLHCVMBE-UHFFFAOYSA-N,CCC(C(C1=CC=CC=C1)O)C(=O)O,035781-54-5,-1.0188,CCC(C(=O)O)C(O)c1ccccc1
1088,B-4965,1.3-Benzenediol. 4-(2-phenylethyl)-,ANTLBIMVNRRJNP-UHFFFAOYSA-N,C1=CC=C(C=C1)CCC2=C(C=C(C=C2)O)O,000094-77-9,-2.7182,Oc1ccc(CCc2ccccc2)c(O)c1
1089,B-4969,(2.2-dimethyl-3-oxo-1-benzofuran-7-yl) N-methylcarbamate,WXNZYYXXILQTKX-UHFFFAOYSA-N,CC1(C(=O)C2=C(O1)C(=CC=C2)OC(=O)NC)C,016709-30-1,-1.721785139,CNC(=O)Oc1cccc2c1OC(C)(C)C2=O
1090,B-4971,OXAZICLOMEFONE,FCOHEOSCARXMMS-UHFFFAOYSA-N,CC1=C(C(=O)N(CO1)C(C)(C)C2=CC(=CC(=C2)Cl)Cl)C3=CC=CC=C3,153197-14-9,-6.320300001,CC1=C(c2ccccc2)C(=O)N(C(C)(C)c2cc(Cl)cc(Cl)c2)CO1
1091,B-4973,3-[(2-chlorophenyl)methyl]-1-(2-phenylpropan-2-yl)urea,VYNOULHXXDFBLU-UHFFFAOYSA-N,CC(C)(C1=CC=CC=C1)NC(=O)NCC2=CC=CC=C2Cl,099485-76-4,-5.481155871,CC(C)(NC(=O)NCc1ccccc1Cl)c1ccccc1
1092,B-4975,2-ethylsulfanylethoxy-dimethoxy-sulfanylidenephosphorane,ZVZQKNVMDKSGGF-UHFFFAOYSA-N,CCSCCOP(=S)(OC)OC,000867-27-6,-2.84373568,CCSCCOP(=S)(OC)OC
1093,B-4978,Benzenamine. N.4-dinitro-,AZYSOGIJGXOMLZ-UHFFFAOYSA-N,C1=CC(=CC=C1N[N+](=O)[O-])[N+](=O)[O-],020020-13-7,-2.0,O=[N+]([O-])Nc1ccc([N+](=O)[O-])cc1
1094,B-4979,TRIMETHYLOLETHANE TRINITRATE,IPPYBNCEPZCLNI-UHFFFAOYSA-N,CC(CO[N+](=O)[O-])(CO[N+](=O)[O-])CO[N+](=O)[O-],003032-55-1,-2.6941,CC(CO[N+](=O)[O-])(CO[N+](=O)[O-])CO[N+](=O)[O-]
1095,B-4981,Propanamide. N-(chloroacetyl)-,CGMHUHSNYLYFIR-UHFFFAOYSA-N,CCC(=O)NC(=O)CCl,015322-68-6,-2.0957,CCC(=O)NC(=O)CCl
1096,B-4982,2-Pteridinol. 6.7-diethyl-,GSGKUGGVXZDGBA-UHFFFAOYSA-N,CCC1=NC2=C(NC(=O)N=C2)N=C1CC,090870-76-1,-2.2644,CCc1nc2cnc(=O)[nH]c2nc1CC
1097,B-4988,5-BUTYL-5-ETHYL-2-THIOBARBITURIC ACID,GRNZOXPRBXDLPY-UHFFFAOYSA-N,CCCCC1(C(=O)NC(=NC1=O)S)CC,053859-09-9,-3.14,CCCCC1(CC)C(=O)N=C(S)NC1=O
1098,B-4990,Malic acid dibutyl ester,PDSCSYLDRHAHOX-UHFFFAOYSA-N,CCCCOC(=O)CC(O)C(=O)OCCCC,001587-18-4,-2.5164,CCCCOC(=O)CC(O)C(=O)OCCCC
1099,B-5000,Cyflufenamide,ACMXQHFNODYQAT-UHFFFAOYSA-N,C1CC1CONC(=NC(=O)CC2=CC=CC=C2)C3=C(C=CC(=C3F)F)C(F)(F)F,180409-60-3,-5.899271608,O=C(Cc1ccccc1)N=C(NOCC1CC1)c1c(C(F)(F)F)ccc(F)c1F
1100,B-5001,Ethyl 2-formamido (3-nitrophenyl) acrylate,KGAVPMFRCZKWJU-YRNVUSSQSA-N,CCOC(=O)/C(=C\C1=CC(=CC=C1)[N+](=O)[O-])/NC=O,136986-61-3,-2.4702,CCOC(=O)C(=Cc1cccc([N+](=O)[O-])c1)NC=O
1101,B-5004,FENSULFOTHION-SULFIDE,NYAZLCBHRWRNRY-UHFFFAOYSA-N,CCOP(=S)(OCC)OC1=CC=C(C=C1)SC,003070-15-3,-4.9,CCOP(=S)(OCC)Oc1ccc(SC)cc1
1102,B-5008,Ethanamine. N-(2.2-diethoxyethyl)-2.2-diethoxy-,UAQHXLYLALUITG-UHFFFAOYSA-N,CCOC(CNCC(OCC)OCC)OCC,067856-69-3,0.1256,CCOC(CNCC(OCC)OCC)OCC
1103,B-5011,2H-Pyran-3-carboxylic acid. 2-oxo-6-phenyl-. eth,JRVHQBNYCLLBLK-UHFFFAOYSA-N,CCOC(=O)C1=CC=C(OC1=O)C1=CC=CC=C1,006465-14-1,-2.7346,CCOC(=O)c1ccc(-c2ccccc2)oc1=O
1104,B-5016,2(1H)-Naphthalenone. octahydro-5.8-dihydroxy-1-m,KRJWIJLMVAUQTI-UHFFFAOYSA-N,CC1C2C(O)CCC(O)C2CCC1=O,100053-24-5,-0.2972,CC1C(=O)CCC2C(O)CCC(O)C12
1105,B-5028,N-(2.6-dimethylindan-1-yl)-6-(1-fluoroethyl)-1.3.5-triazine-2.4-diamine,YFONKFDEZLYQDH-OPQQBVKSSA-N,C[C@H]1CC2=C([C@@H]1NC3=NC(=NC(=N3)N)[C@@H](C)F)C=C(C=C2)C,950782-86-2,-5.031927576,Cc1ccc2c(c1)C(Nc1nc(N)nc(C(C)F)n1)C(C)C2
1106,B-5030,5.5-DIETHYL-2-THIOBARBITURIC  ACID; Thiobarbital,QGVNJRROSLYGKF-UHFFFAOYSA-N,CCC1(C(=O)NC(=NC1=O)S)CC,000077-32-7,-2.28,CCC1(CC)C(=O)N=C(S)NC1=O
1107,B-5036,Naphthalene. 1.4.5-trinitro-,PPJVBBJMDLANLB-UHFFFAOYSA-N,C1=CC2=C(C=CC(=C2C(=C1)[N+](=O)[O-])[N+](=O)[O-])[N+](=O)[O-],002243-95-0,-3.8182,O=[N+]([O-])c1ccc([N+](=O)[O-])c2c([N+](=O)[O-])cccc12
1108,B-5047,2.5-Pyrrolidinedione. 1-(4-ethoxyphenyl)-,NBGGPAMRRAPEJW-UHFFFAOYSA-N,CCOC1=CC=C(C=C1)N2C(=O)CCC2=O,000611-41-6,-2.4607,CCOc1ccc(N2C(=O)CCC2=O)cc1
1109,B-5053,2H-1-Benzopyran-3-carboxamide. N.N-diethyl-2-oxo,DIHKPWRAFNUESX-UHFFFAOYSA-N,CCN(CC)C(=O)C1=CC2=C(OC1=O)C=CC=C2,018144-62-2,-1.5204,CCN(CC)C(=O)c1cc2ccccc2oc1=O
1110,B-5054,Coumarin. 4-(diethylcarbamoyl)-,XRRPILZLOJTFAO-UHFFFAOYSA-N,CCN(CC)C(=O)C1=CC(=O)OC2=C1C=CC=C2,004825-96-1,-2.0886,CCN(CC)C(=O)c1cc(=O)oc2ccccc12
1111,B-5061,1.3.5-Trioxane-2.4.6-triimine,SMEDVXJKKOXLCP-UHFFFAOYSA-N,C1(=N)OC(=N)OC(=N)O1,000462-02-2,-3.1109,N=c1oc(=N)oc(=N)o1
1112,B-5065,1-(4-tert-butylphenoxy)propan-2-yl 2-chloroethyl sulfite,YKFRAOGHWKADFJ-LAJNKCICSA-N,C[C@@H](COC1=CC=C(C=C1)C(C)(C)C)O[S@](=O)OCCCl,000140-57-8,-5.754007759,CC(COc1ccc(C(C)(C)C)cc1)OS(=O)OCCCl
1113,B-5066,[2-oxo-3-(2.4.6-trimethylphenyl)-1-oxaspiro[4.4]non-3-en-4-yl] 3.3-dimethylbutanoate,GOLXNESZZPUPJE-UHFFFAOYSA-N,CC1=CC(=C(C(=C1)C)C2=C(C3(CCCC3)OC2=O)OC(=O)CC(C)(C)C)C,283594-90-1,-6.454830325,Cc1cc(C)c(C2=C(OC(=O)CC(C)(C)C)C3(CCCC3)OC2=O)c(C)c1
1114,B-5067,Thiourea. cyano-,SSGODMHQNTWPOX-UHFFFAOYSA-N,C(#N)N=C(N)S,061296-28-4,-0.0049,N#CN=C(N)S
1115,B-5070,2-Furancarboxylic acid. 5-bromo-. [3-(5-nitro-2-,QLDLSAQTGTYEKM-KGYSUWQBSA-N,BrC1=CC=C(O1)C(=O)N\N=C\C=C\C1=CC=C(O1)N(=O)=O,037962-15-5,-5.072,O=C(NN=CC=Cc1ccc([N+](=O)[O-])o1)c1ccc(Br)o1
1116,B-5071,THIOPENTAL,IUJDSEJGGMCXSG-UHFFFAOYSA-N,CCCC(C)C1(C(=O)NC(=NC1=O)S)CC,000076-75-5,-3.6,CCCC(C)C1(CC)C(=O)N=C(S)NC1=O
1117,B-5073,3-Isoxazolecarboxylic acid,LYPXTDXYEQEIIN-UHFFFAOYSA-N,C1=C(C=NO1)C(=O)O,006436-62-0,0.9467,O=C(O)c1cnoc1
1118,B-5078,fluopicolide,GBOYJIHYACSLGN-UHFFFAOYSA-N,C1=CC(=C(C(=C1)Cl)C(=O)NCC2=C(C=C(C=N2)C(F)(F)F)Cl)Cl,239110-15-7,-5.136720567,O=C(NCc1ncc(C(F)(F)F)cc1Cl)c1c(Cl)cccc1Cl
1119,B-5088,Fluopyram,KVDJTXBXMWJJEF-UHFFFAOYSA-N,C1=CC=C(C(=C1)C(=O)NCCC2=C(C=C(C=N2)C(F)(F)F)Cl)C(F)(F)F,658066-35-4,-4.422381889,O=C(NCCc1ncc(C(F)(F)F)cc1Cl)c1ccccc1C(F)(F)F
1120,B-5092,5-ETHYL-5-HEXYL-2-THIOBARBITURIC  ACID,MWKKOAYCASKCLO-UHFFFAOYSA-N,CCCCCCC1(C(=O)NC(=NC1=O)S)CC,060784-79-4,-4.08,CCCCCCC1(CC)C(=O)N=C(S)NC1=O
1121,B-5098,Butyric acid. 2.2'-selenodi-. meso-,RJFJLTQPOPICNW-OLQVQODUSA-N,CC[C@H](C(=O)O)[Se][C@@H](CC)C(=O)O,022659-20-7,-0.9205,CCC([Se]C(CC)C(=O)O)C(=O)O
1122,B-5099,Phthalic acid. 3-nitro-. 2-propyl ester,XPXSGQWKXANSCQ-UHFFFAOYSA-N,CCCOC(=O)C1=C(C=CC=C1[N+](=O)[O-])C(=O)O,006744-86-1,-2.3466,CCCOC(=O)c1c(C(=O)O)cccc1[N+](=O)[O-]
1123,B-5102,Fluroxypyr-2-butoxy-1-methylethyl,ZKFARSBUEBZZJT-UHFFFAOYSA-N,CCCCOCC(C)OC(=O)COC1=NC(=C(C(=C1Cl)N)Cl)F,154486-27-8,-4.4669,CCCCOCC(C)OC(=O)COc1nc(F)c(Cl)c(N)c1Cl
1124,B-5103,Picrolonic acid,OVFUUSPKWADLNJ-UHFFFAOYSA-N,CC1=NN(C(=O)C1[N+](=O)[O-])C2=CC=C(C=C2)[N+](=O)[O-],000550-74-3,-1.4677,CC1=NN(c2ccc([N+](=O)[O-])cc2)C(=O)C1[N+](=O)[O-]
1125,B-5105,Phthalic acid. 4-nitro-. 2-methyl ester,DBRYTMUUOGDANT-UHFFFAOYSA-N,COC(=O)C1=C(C=CC(=C1)[N+](=O)[O-])C(=O)O,101714-14-1,-1.721,COC(=O)c1cc([N+](=O)[O-])ccc1C(=O)O
1126,B-5106,propan-2-yl 2-[methoxy-(propan-2-ylamino)phosphinothioyl]oxybenzoate,IXTOWLKEARFCCP-UHFFFAOYSA-N,CC(C)NP(=S)(OC)OC1=CC=CC=C1C(=O)OC(C)C,099675-03-3,-4.140096573,COP(=S)(NC(C)C)Oc1ccccc1C(=O)OC(C)C
1127,B-5108,2-methyl-4-oxo-N-phenyl-5.6-dihydro-1.4-oxathiine-3-carboxamide,UZXIHLNNJNITMJ-UHFFFAOYSA-N,CC1=C(S(=O)CCO1)C(=O)NC2=CC=CC=C2,017757-70-9,-2.631036107,CC1=C(C(=O)Nc2ccccc2)S(=O)CCO1
1128,B-5112,PHENYLUREA,LUBJCRLGQSPQNN-UHFFFAOYSA-N,C1=CC=C(C=C1)NC(=O)N,000064-10-8,-0.893477967,NC(=O)Nc1ccccc1
1129,B-5113,Isopropyl (1-(4-methyl)phenylsulfonyl) cyclobuta,ICGOMSYWVMLBDX-UHFFFAOYSA-N,CC(C)OC(=O)C1(CCC1)S(=O)(=O)C2=CC=CC=C2,160790-13-6,-3.32004189,CC(C)OC(=O)C1(S(=O)(=O)c2ccccc2)CCC1
1130,B-5116,Benzoic acid. 3.4-dimethoxy-2-nitro-,QZYYEGRMWJAHBY-UHFFFAOYSA-N,COC1=C(C(=C(C=C1)C(=O)O)[N+](=O)[O-])OC,079025-28-8,-2.3564,COc1ccc(C(=O)O)c([N+](=O)[O-])c1OC
1131,B-5120,Butanoic acid. 2-hydroxy-1.3-propanediyl ester,KBWFWZJNPVZRRG-UHFFFAOYSA-N,CCCC(=O)OCC(COC(=O)CCC)O,017364-00-0,-1.8219,CCCC(=O)OCC(O)COC(=O)CCC
1132,B-5124,5-(2.4-Dichlorophenoxy)-2-nitrobenzoic acid,IUSYSZLVZMUVDO-UHFFFAOYSA-N,C1=CC(=C(C=C1OC2=C(C=C(C=C2)Cl)Cl)C(=O)O)[N+](=O)[O-],053774-07-5,-2.51601682,O=C(O)c1cc(Oc2ccc(Cl)cc2Cl)ccc1[N+](=O)[O-]
1133,B-5125,1-Naphthaleneacetamide,XFNJVKMNNVCYEK-UHFFFAOYSA-N,C1=CC=C2C(=C1)C=CC=C2CC(=O)N,000086-86-2,-3.6766,NC(=O)Cc1cccc2ccccc12
1134,B-5129,4H-1.3-Thiazine-4-carboxylic acid. 2-amino-5.6-d,WWVRIXFXCHXYQQ-UHFFFAOYSA-N,C1CSC(=NC1C(=O)O)N,103983-05-7,-0.7275,NC1=NC(C(=O)O)CCS1
1135,B-5132,(2S.3R)-2.3-dibromobutanedioic acid,FJWGRXKOBIVTFA-XIXRPRMCSA-N,[C@@H]([C@@H](C(=O)O)Br)(C(=O)O)Br,000608-36-6,-1.1311,O=C(O)C(Br)C(Br)C(=O)O
1136,B-5135,2-chloro-N-(2-ethoxyethyl)-N-(2-methyl-1-phenylprop-1-enyl)acetamide,CSWIKHNSBZVWNQ-UHFFFAOYSA-N,CCOCCN(C(=O)CCl)C(=C(C)C)C1=CC=CC=C1,106700-29-2,-2.868950364,CCOCCN(C(=O)CCl)C(=C(C)C)c1ccccc1
1137,B-5138,Phthalic acid. 3-nitro-. 2 ethyl ester,ANIGGJRHTJBCOD-UHFFFAOYSA-N,CCOC(=O)C1=C(C=CC=C1C(O)=O)N(=O)=O,006828-46-2,-1.9163,CCOC(=O)c1c(C(=O)O)cccc1[N+](=O)[O-]
1138,B-5139,2.4.6(1H.3H.5H)-Pyrimidinetrione. 1.3-dimethyl-5,XMNHVEFLJGTPDJ-UHFFFAOYSA-N,CN1C(=O)C(C(=O)N(C1=O)C)[N+](=O)[O-],014305-99-8,-0.0808,CN1C(=O)C([N+](=O)[O-])C(=O)N(C)C1=O
1139,B-5145,TETRANITROANILINE,NXEMFHROMKRKEG-UHFFFAOYSA-N,C1=C(C(=C(C(=C1[N+](=O)[O-])[N+](=O)[O-])N)[N+](=O)[O-])[N+](=O)[O-],053014-37-2,-3.5913,Nc1c([N+](=O)[O-])c([N+](=O)[O-])cc([N+](=O)[O-])c1[N+](=O)[O-]
1140,B-5148,5-ethyl-6-octyl-[1.2.4]triazolo[5.1-b]pyrimidin-7-amine,GGKQIOFASHYUJZ-UHFFFAOYSA-N,CCCCCCCCC1=C(N2C(=NC=N2)N=C1CC)N,865318-97-4,-6.263856907,CCCCCCCCc1c(CC)nc2ncnn2c1N
1141,B-5151,methyl (5Z)-2.2-dimethyl-4.6-dioxo-5-[1-(prop-2-enoxyamino)butylidene]cyclohexane-1-carboxylate,CBLVUXPPNHUKDE-QBFSEMIESA-N,CCC/C(=C/1\C(=O)CC(C(C1=O)C(=O)OC)(C)C)/NOCC=C,055634-91-8,0.791305827,C=CCONC(CCC)=C1C(=O)CC(C)(C)C(C(=O)OC)C1=O
1142,B-5152,N-(cyanomethyl)-4-(trifluoromethyl)pyridine-3-carboxamide,RLQJEEJISHYWON-UHFFFAOYSA-N,C1=CN=CC(=C1C(F)(F)F)C(=O)NCC#N,158062-67-0,-1.644137555,N#CCNC(=O)c1cnccc1C(F)(F)F
1143,B-5155,3.5-Dimethyl-4-thia-hepta-2.5-diendioic acid,LMNZQLHMFHGLLZ-GGWOSOGESA-N,C\C(=C/C(O)=O)C(S)C(\C)=C\C(O)=O,007345-19-9,-2.335,CC(=CC(=O)O)C(S)C(C)=CC(=O)O
1144,B-5158,(3-bromo-6-methoxy-2-methylphenyl)-(2.3.4-trimethoxy-6-methylphenyl)methanone,AMSPWOYQQAWRRM-UHFFFAOYSA-N,CC1=CC(=C(C(=C1C(=O)C2=C(C=CC(=C2C)Br)OC)OC)OC)OC,220899-03-6,-5.920051069,COc1cc(C)c(C(=O)c2c(OC)ccc(Br)c2C)c(OC)c1OC
1145,B-5159,2.2.5.5-Tetramethyltetrahydro-8aH-[1.3]dioxolo[4.5]furo[3.2-d][1.3]dioxine-8a-carboxylic acid,FWCBATIDXGJRMF-UHFFFAOYSA-N,CC1(OCC2C(O1)C3C(O2)(OC(O3)(C)C)C(=O)O)C,018467-77-1,-1.137148311,CC1(C)OCC2OC3(C(=O)O)OC(C)(C)OC3C2O1
1146,B-5172,Phthalic acid. 3-nitro-. isopentyl ester,GJMKEWQCBMBZCD-UHFFFAOYSA-N,CC(C)CCOC(=O)C1=C(C=CC=C1C(O)=O)N(=O)=O,006744-92-9,-3.0689,CC(C)CCOC(=O)c1c(C(=O)O)cccc1[N+](=O)[O-]
1147,B-5176,BUTANOIC ACID. [2-(AMINOCARBONYL)PHENOXY]METHYL,ZQHLGNTZNJIQIK-UHFFFAOYSA-N,CCCC(=O)OCOC1=CC=CC=C1C(=O)N,103951-39-9,-1.9773,CCCC(=O)OCOc1ccccc1C(N)=O
1148,B-5180,2-BROMO-4-METHYL-5-NITRO-1H-IMIDAZOLE,GOKBPGXXQSCLLS-UHFFFAOYSA-N,CC1=C(N=C(N1)Br)[N+](=O)[O-],105983-46-8,-1.791,Cc1[nH]c(Br)nc1[N+](=O)[O-]
1149,B-5186,methyl (E)-3-methoxy-2-[2-[[6-(trifluoromethyl)pyridin-2-yl]oxymethyl]phenyl]prop-2-enoate,IBSNKSODLGJUMQ-SDNWHVSQSA-N,CO/C=C(\C1=CC=CC=C1COC2=CC=CC(=N2)C(F)(F)F)/C(=O)OC,117428-22-5,-5.073659235,COC=C(C(=O)OC)c1ccccc1COc1cccc(C(F)(F)F)n1
1150,B-5189,(4-CHLOROPHENYL)UREA,RECCURWJDVZHIH-UHFFFAOYSA-N,C1=CC(=CC=C1NC(=O)N)Cl,000140-38-5,-1.983265454,NC(=O)Nc1ccc(Cl)cc1
1151,B-5190,Flucythrinate,GBIHOLCMZGAKNG-ZEQRLZLVSA-N,N#C[C@@H](C1CCCC(C1)OC1CCCCC1)OC(=O)[C@H](C1CCC(CC1)OC(F)F)C(C)C,070124-77-5,-6.876,CC(C)C(C(=O)OC(C#N)C1CCCC(OC2CCCCC2)C1)C1CCC(OC(F)F)CC1
1152,B-5192,4-hydroxy-2-methylquinoline,NWINIEGDLHHNLH-UHFFFAOYSA-N,CC1=CC(=O)C2=CC=CC=C2N1,000607-67-0,-1.2019,Cc1cc(=O)c2ccccc2[nH]1
1153,B-5194,(5S)-5-methyl-2-methylsulfanyl-5-phenyl-3-(phenylamino)imidazol-4-one,LMVPQMGRYSRMIW-KRWDZBQOSA-N,CSC1=N[C@](C)(C(=O)N1NC1=CC=CC=C1)C1=CC=CC=C1,161326-34-7,-4.601225121,CSC1=NC(C)(c2ccccc2)C(=O)N1Nc1ccccc1
1154,B-5203,Benzene. iodosyl-,JYJVVHFRSFVEJM-UHFFFAOYSA-N,C1=CC=C(C=C1)I=O,000536-80-1,-2.4318,O=Ic1ccccc1
1155,B-5204,Benzeneacetic acid. .alpha.-hydroxy-4-(1-methyle,QGBGSPANMHQOAV-UHFFFAOYSA-N,CC(C)C1=CC=C(C=C1)C(C(=O)O)O,004607-63-0,-2.0125,CC(C)c1ccc(C(O)C(=O)O)cc1
1156,B-5205,2H-1-Benzopyran-3-acetic acid. 2-oxo-,SHJIXDKRFQBKCZ-UHFFFAOYSA-N,C1=CC=C2C(=C1)C=C(C(=O)O2)CC(=O)O,020862-58-2,-0.5406,O=C(O)Cc1cc2ccccc2oc1=O
1157,B-5212,Phthalic acid. 3-nitro-. 2-isobutyl ester,ROAZGIBVEUZIRR-UHFFFAOYSA-N,CC(C)COC(=O)C1=C(C=CC=C1[N+](=O)[O-])C(=O)O,006744-88-3,-3.0467,CC(C)COC(=O)c1c(C(=O)O)cccc1[N+](=O)[O-]
1158,B-5214,(2E)-2-[2-[(2.5-dimethylphenoxy)methyl]phenyl]-2-methoxyimino-N-methylacetamide,WXUZAHCNPWONDH-UZYVYHOESA-N,CC1=CC(=C(C=C1)C)OCC2=CC=CC=C2/C(=N/OC)/C(=O)NC,149961-52-4,-4.880274243,CNC(=O)C(=NOC)c1ccccc1COc1cc(C)ccc1C
1159,B-5215,propan-2-yl N-[3-methyl-1-[[(1S)-1-(4-methylphenyl)ethyl]amino]-1-oxobutan-2-yl]carbamate,NWUWYYSKZYIQAE-LBAUFKAWSA-N,CC(C)OC(=O)NC(C(C)C)C(=O)N[C@@H](C)C1=CC=C(C)C=C1,140923-17-7,-4.255272505,Cc1ccc(C(C)NC(=O)C(NC(=O)OC(C)C)C(C)C)cc1
1160,B-5219,Ethyl 2-formamido phenyl acrylate,NSIFWGFNWXAKOX-FLIBITNWSA-N,CCOC(=O)/C(=C/C1=CC=CC=C1)/NC=O,025315-34-8,-2.8907,CCOC(=O)C(=Cc1ccccc1)NC=O
1161,B-5225,4-Hydroxy-butyraldehyde-<2.4-dinitro-phenylhydra,PDJYALAFWNXKHE-UHFFFAOYSA-N,C1=CC(=C(C=C1[N+](=O)[O-])[N+](=O)[O-])NN=CCCCO,001708-33-4,-2.8264,O=[N+]([O-])c1ccc(NN=CCCCO)c([N+](=O)[O-])c1
1162,B-5226,3.4-DIMETHOXYBENZOIC ACID,DAUAQNGYDSHRET-UHFFFAOYSA-N,COC1=C(C=C(C=C1)C(=O)O)OC,000093-07-2,-2.5615,COc1ccc(C(=O)O)cc1OC
1163,B-5230,Ethyl 2-formamido (3-chlorophenyl) acrylate,YVNXHLUFCGHPLF-YRNVUSSQSA-N,CCOC(=O)/C(=C\C1=CC(=CC=C1)Cl)/NC=O,137013-29-7,-3.1098,CCOC(=O)C(=Cc1cccc(Cl)c1)NC=O
1164,B-5239,Ethyl 2-formamido (dioxo-phenyl) acrylate,RTDBZJACGBEUOI-YHYXMXQVSA-N,CCOC(=O)/C(=C/C1=CC2=C(C=C1)OCO2)/NC=O,136986-57-7,-2.1393,CCOC(=O)C(=Cc1ccc2c(c1)OCO2)NC=O
1165,B-5241,Pyriftalid,RRKHIAYNPVQKEF-UHFFFAOYSA-N,CC1C2=C(C(=CC=C2)SC3=NC(=CC(=N3)OC)OC)C(=O)O1,135186-78-6,-5.247564134,COc1cc(OC)nc(Sc2cccc3c2C(=O)OC3C)n1
1166,B-5245,1.3-Benzodioxole-5.6-dicarboxylic acid,UMEVZMYDJGBHMC-UHFFFAOYSA-N,C1OC2=C(O1)C=C(C(=C2)C(=O)O)C(=O)O,000490-26-6,-1.5444,O=C(O)c1cc2c(cc1C(=O)O)OCO2
1167,B-5246,4-Chloro-N-(2-chloro-4-nitrophenyl)-3-(trifluoromethyl)benzenesulfonamide,GNVDAZSPJWCIQZ-UHFFFAOYSA-N,C1=CC(=C(C=C1[N+](=O)[O-])Cl)NS(=O)(=O)C2=CC(=C(C=C2)Cl)C(F)(F)F,106917-52-6,-5.155828489,O=[N+]([O-])c1ccc(NS(=O)(=O)c2ccc(Cl)c(C(F)(F)F)c2)c(Cl)c1
1168,B-5253,1-Butanone. 4-(4-hydroxy-4-phenyl-1-piperidinyl),IOCMJUXJUBZFSJ-UHFFFAOYSA-N,C1CN(CCC1(C2=CC=CC=C2)O)CCCC(=O)C3=CC=CC=C3,014862-80-7,-4.0626,O=C(CCCN1CCC(O)(c2ccccc2)CC1)c1ccccc1
1169,B-5262,8H-Purine-8-thione. 1.7-dihydro-,VABISHCLVYMGAU-UHFFFAOYSA-N,C1=C2C(=NC=N1)N=C(N2)S,000583-40-4,-2.5243,Sc1nc2ncncc2[nH]1
1170,B-5270,Flumethrin,YXWCBRDRVXHABN-JCMHNJIXSA-N,CC1(C)[C@@H](\C=C(\Cl)C2=CC=C(Cl)C=C2)[C@@H]1C(=O)O[C@H](C#N)C1=CC(OC2=CC=CC=C2)=C(F)C=C1,069770-45-2,-3.406873097,CC1(C)C(C=C(Cl)c2ccc(Cl)cc2)C1C(=O)OC(C#N)c1ccc(F)c(Oc2ccccc2)c1
1171,B-5274,Etobenzanid,ICWUMLXQKFTJMH-UHFFFAOYSA-N,CCOCOC1=CC=C(C=C1)C(=O)NC2=C(C(=CC=C2)Cl)Cl,079540-50-4,-5.568,CCOCOc1ccc(C(=O)Nc2cccc(Cl)c2Cl)cc1
1172,B-5275,2.4.6-TRINITROPHENETOL,CZSZIOSUSBHROZ-UHFFFAOYSA-N,CCOC1=C(C(=C(C=C1)[N+](=O)[O-])[N+](=O)[O-])[N+](=O)[O-],004732-14-3,-3.4102,CCOc1ccc([N+](=O)[O-])c([N+](=O)[O-])c1[N+](=O)[O-]
1173,B-5277,ETHANOL. 2.2'- (4-METHYLPHENYL)IMINO BIS-,JUVSRZCUMWZBFK-UHFFFAOYSA-N,CC1=CC=C(C=C1)N(CCO)CCO,003077-12-1,-0.91,Cc1ccc(N(CCO)CCO)cc1
1174,B-5281,6-chloro-5-(2.3-dichlorophenoxy)-2-methylsulfanyl-1H-benzimidazole,NQPDXQQQCQDHHW-UHFFFAOYSA-N,CSC1=NC2=CC(=C(C=C2N1)Cl)OC3=C(C(=CC=C3)Cl)Cl,068786-66-3,-5.555888397,CSc1nc2cc(Oc3cccc(Cl)c3Cl)c(Cl)cc2[nH]1