,C_ID,Name,InChIKey,SMILES,CAS,LogS,smiles_canon
4096,B-9401,3-(2-dimethylaminoethyl)-1H-indol-4-ol,SPCIYGNTAMCTRO-UHFFFAOYSA-N,CN(CCC1C[NH]C2C1C(O)CCC2)C,000520-53-6,-0.929276483,CN(C)CCC1CNC2CCCC(O)C12
4097,B-9402,(1-ethylpyrrolidin-3-yl) N-(2.6-dimethylphenyl)carbamate,BZMOMWMLUGUGGX-UHFFFAOYSA-N,CCN1CCC(C1)OC(=O)NC1C(C)CCCC1C,031755-09-6,-3.414564661,CCN1CCC(OC(=O)NC2C(C)CCCC2C)C1
4098,B-9404,(2E)-2-hydroxyimino-1-phenylethanone,MLNKXLRYCLKJSS-RMKNXTFCSA-N,O/N=C/C(=O)C1CCCCC1,000532-54-7,-2.886266573,O=C(C=NO)C1CCCCC1
4099,B-9405,(E)-1-(8-methyl-3.8-diazabicyclo[3.2.1]octan-3-yl)-3-phenylprop-2-en-1-one,AUHOMZNEERYDEN-JXMROGBWSA-N,CN1C2CCC1CN(C2)C(=O)/C=C/C1CCCCC1,063977-90-2,-2.61295161,CN1C2CCC1CN(C(=O)C=CC1CCCCC1)C2
4100,B-9407,1.4-Dimethyl-2-nitroimidazole,ISFBTZLEOKKUDX-UHFFFAOYSA-N,[O-][N+](=O)C1NC(CN1C)C,005297-92-7,-1.450649337,CC1CN(C)C([N+](=O)[O-])N1
4101,B-9408,4-chloro-6-(4-methylpiperazin-1-yl)-5-methylsulfanyl-N-phenylpyrimidin-2-amine,WTYDEBIGLNBNNF-UHFFFAOYSA-N,CSC1C(Cl)NC(NC1N1CCN(CC1)C)NC1CCCCC1,055921-67-0,-3.391632027,CSC1C(Cl)NC(NC2CCCCC2)NC1N1CCN(C)CC1
4102,B-9409,3-(2-ethoxyphenoxy)propane-1.2-diol,XLOYQLAMNLMXCE-UHFFFAOYSA-N,CCOC1CCCCC1OCC(CO)O,063834-83-3,-1.530263135,CCOC1CCCCC1OCC(O)CO
4103,B-9410,5-(phenylsulfanylmethyl)-4.5-dihydro-1.3-oxazol-2-amine,DSXNAAVBZUNNJI-UHFFFAOYSA-N,NC1=NCC(O1)CSC1CCCCC1,041136-03-2,-2.163309467,NC1=NCC(CSC2CCCCC2)O1
4104,B-9411,4-Hydroxy-3.5-dimethoxybenzaldehyde,KCDXJAYRVLXPFO-UHFFFAOYSA-N,COC1CC(C=O)CC(C1O)OC,000134-96-3,-1.533272957,COC1CC(C=O)CC(OC)C1O
4105,B-9412,3-(4-bromo-2-prop-2-enylphenoxy)propane-1.2-diol,RPSRVESLGPZACW-UHFFFAOYSA-N,C=CCC1CC(Br)CCC1OCC(CO)O,063905-17-9,-3.978106445,C=CCC1CC(Br)CCC1OCC(O)CO
4106,B-9414,4-dimethylamino-2-ethyl-2-phenylbutanamide,WIGLWDYSZRNQOI-UHFFFAOYSA-N,CCC(C1CCCCC1)(C(=O)N)CCN(C)C,002977-17-5,-2.279946874,CCC(CCN(C)C)(C(N)=O)C1CCCCC1
4107,B-9415,(1S.2R)-2-hydroxy-2-phenylcyclohexane-1-carboxylic acid,VCZPUGSOJXZKIP-YPMHNXCESA-N,OC(=O)[C@H]1CCCC[C@]1(O)C1CCCCC1,057808-63-6,-2.026981083,O=C(O)C1CCCCC1(O)C1CCCCC1
4108,B-9416,1H-pyrido[3.2-e][1.4]thiazin-2-one,BOASKSPVGGTZKJ-UHFFFAOYSA-N,C1SC2NCCCC2NC1=O,018504-81-9,-1.203592454,O=C1CSC2NCCCC2N1
4109,B-9417,5-chloro-3H-1.3-benzoxazole-2-thione,BOBIZYYFYLLRAH-UHFFFAOYSA-N,ClC1CCC2C(C1)[NH]C(=S)O2,022876-19-3,-3.164832746,S=C1NC2CC(Cl)CCC2O1
4110,B-9418,1-(4-aminophenyl)pentan-1-one,ODSCUBSJIFLFPF-UHFFFAOYSA-N,CCCCC(=O)C1CCC(CC1)N,038237-74-0,-2.459633142,CCCCC(=O)C1CCC(N)CC1
4111,B-9419,N'-[4.5-di(phenyl)-1.3-oxazol-2-yl]-N.N-diethylpropane-1.3-diamine,BPGOVPPTXCAFFA-UHFFFAOYSA-N,CCN(CCCNC1NC(C(O1)C1CCCCC1)C1CCCCC1)CC,018471-22-2,-5.147220495,CCN(CC)CCCNC1NC(C2CCCCC2)C(C2CCCCC2)O1
4112,B-9420,1-[3-(3-phenylpropyl)-3.8-diazabicyclo[3.2.1]octan-8-yl]propan-1-one,MBEIYAXOZCKVDR-UHFFFAOYSA-N,CCC(=O)N1C2CCC1CN(C2)CCCC1CCCCC1,063990-14-7,-3.853857467,CCC(=O)N1C2CCC1CN(CCCC1CCCCC1)C2
4113,B-9421,4-Aminobenzaldehyde,VATYWCRQDJIRAI-UHFFFAOYSA-N,O=CC1CCC(CC1)N,000556-18-3,-0.872163443,NC1CCC(C=O)CC1
4114,B-9422,3-methyl-2.3-dihydro-[1.2]oxazolo[3.2-b]quinazolin-9-one,FASHSDVYBORDDB-UHFFFAOYSA-N,CC1CON2C1NC1CCCCC1C2=O,037795-71-4,-2.393587016,CC1CON2C(=O)C3CCCCC3NC12
4115,B-9425,(1-propylpiperidin-4-yl) N-(2-chloro-6-methylphenyl)carbamate,JMHSMFKQKRUZBH-UHFFFAOYSA-N,CCCN1CCC(CC1)OC(=O)NC1C(C)CCCC1Cl,033531-32-7,-4.689054621,CCCN1CCC(OC(=O)NC2C(C)CCCC2Cl)CC1
4116,B-9426,3-[bis(2-chloroethyl)amino]-4-methylbenzaldehyde,DEOICCGWRFAQNC-UHFFFAOYSA-N,ClCCN(C1CC(C=O)CCC1C)CCCl,019768-74-2,-4.450035468,CC1CCC(C=O)CC1N(CCCl)CCCl
4117,B-9427,2-(1.3-benzoxazol-2-ylamino)benzoic acid,UBBHIBDVUFKRET-UHFFFAOYSA-N,OC(=O)C1CCCCC1NC1NC2C(O1)CCCC2,064037-17-8,-3.133410814,O=C(O)C1CCCCC1NC1NC2CCCCC2O1
4118,B-9429,3-(2-methylpiperidin-1-yl)propyl 2-(phenoxy)acetate,DPFSZEXJIOUDSW-UHFFFAOYSA-N,O=C(COC1CCCCC1)OCCCN1CCCCC1C,063906-45-6,-3.374571008,CC1CCCCN1CCCOC(=O)COC1CCCCC1
4119,B-9430,ethyl 2-oxo-2-(2H-quinolin-1-yl)acetate,WTLJHBLVUSNPSV-UHFFFAOYSA-N,CCOC(=O)C(=O)N1CC=CC2C1CCCC2,030831-87-9,-2.303385798,CCOC(=O)C(=O)N1CC=CC2CCCCC21
4120,B-9431,ethyl 2-(2-phenyl-1.3-benzothiazol-5-yl)acetate,KDOPUKOTJDLFQA-UHFFFAOYSA-N,CCOC(=O)CC1CCC2C(C1)NC(S2)C1CCCCC1,049702-16-1,-5.222880086,CCOC(=O)CC1CCC2SC(C3CCCCC3)NC2C1
4121,B-9432,6-methyl-N-phenyl-1.3.5-triazine-2.4-diamine,AMHZCJNIRZHOAJ-UHFFFAOYSA-N,CC1NC(NC2CCCCC2)NC(N1)N,007426-35-9,-2.753470849,CC1NC(N)NC(NC2CCCCC2)N1
4122,B-9433,3-(2-methylphenoxy)propyl carbamate,KLLDCZLNAVUXAE-UHFFFAOYSA-N,NC(=O)OCCCOC1CCCCC1C,063716-27-8,-2.657897257,CC1CCCCC1OCCCOC(N)=O
4123,B-9434,5-methyl-1-phenyl-N.N-dipropyltriazole-4-carboxamide,OTXYXYOEXXRCPM-UHFFFAOYSA-N,CCCN(C(=O)C1NNN(C1C)C1CCCCC1)CCC,063979-30-6,-2.269420447,CCCN(CCC)C(=O)C1NNN(C2CCCCC2)C1C
4124,B-9435,2-diethylaminoethyl 3-amino-4-propoxybenzoate,KCLANYCVBBTKTO-UHFFFAOYSA-N,CCCOC1CCC(CC1N)C(=O)OCCN(CC)CC,000298-50-0,-2.943108463,CCCOC1CCC(C(=O)OCCN(CC)CC)CC1N
4125,B-9436,3.5-Dimethylbenzoic acid,UMVOQQDNEYOJOK-UHFFFAOYSA-N,OC(=O)C1CC(C)CC(C1)C,000499-06-9,-3.07485635,CC1CC(C)CC(C(=O)O)C1
4126,B-9437,1-Ethyl-5-methyl-2-nitroimidazole,NIZHAUDFIOIGPX-UHFFFAOYSA-N,CCN1C(C)CNC1[N+](=O)[O-],023571-36-0,-1.970663286,CCN1C(C)CNC1[N+](=O)[O-]
4127,B-9438,5-bromo-1.3.6-trimethylpyrimidine-2.4-dione,RJNYZLOAGXCCHJ-UHFFFAOYSA-N,CC1N(C)C(=O)N(C(=O)C1Br)C,015018-59-4,-1.32215408,CC1C(Br)C(=O)N(C)C(=O)N1C
4128,B-9439,1-(2-Bromoethyl)-2-methyl-5-nitroimidazole,HCKPAAMFYJPGMI-UHFFFAOYSA-N,BrCCN1C(C)NCC1[N+](=O)[O-],006058-57-7,-2.839114495,CC1NCC([N+](=O)[O-])N1CCBr
4129,B-9440,2-hexoxybenzamide,CKSJXOVLXUMMFF-UHFFFAOYSA-N,CCCCCCOC1CCCCC1C(=O)N,053370-90-4,-3.054724145,CCCCCCOC1CCCCC1C(N)=O
4130,B-9441,5-methyl-11H-benzo[b][1.4]benzodiazepin-6-one,NLKSFKLPWZLDGG-UHFFFAOYSA-N,O=C1N(C)C2CCCCC2[NH]C2C1CCCC2,032047-69-1,-3.963367801,CN1C(=O)C2CCCCC2NC2CCCCC21
4131,B-9442,5-dimethylamino-3-ethyl-6-methyl-1-phenylpyrimidine-2.4-dione,LACNYROKODNCOD-UHFFFAOYSA-N,CCN1C(=O)N(C2CCCCC2)C(C(C1=O)N(C)C)C,031992-03-7,-2.399270337,CCN1C(=O)C(N(C)C)C(C)N(C2CCCCC2)C1=O
4132,B-9443,3-(4-propylphenoxy)propane-1.2-diol,JGFCZGSHTBKQHF-UHFFFAOYSA-N,CCCC1CCC(CC1)OCC(CO)O,063991-79-7,-2.775008785,CCCC1CCC(OCC(O)CO)CC1
4133,B-9444,6-methoxy-4-methyl-2-[3-(1.3-thiazolidin-3-yl)propoxy]quinoline,HSCDRQYKRDWPKB-UHFFFAOYSA-N,COC1CCC2C(C1)C(C)CC(N2)OCCCN1CSCC1,041288-18-0,-3.477714931,COC1CCC2NC(OCCCN3CCSC3)CC(C)C2C1
4134,B-9445,2-[1-[3-(trifluoromethyl)phenyl]propan-2-ylamino]ethyl benzoate,CJAVTWRYCDNHSM-UHFFFAOYSA-N,CC(CC1CCCC(C1)C(F)(F)F)NCCOC(=O)C1CCCCC1,023602-78-0,-4.743126512,CC(CC1CCCC(C(F)(F)F)C1)NCCOC(=O)C1CCCCC1
4135,B-9446,1-[2-(4-chlorophenyl)ethyl]-2-ethyl-6.7-dimethoxy-3.4-dihydro-1H-isoquinoline,SNYIPZNSOUVGTP-UHFFFAOYSA-N,CCN1CCC2C(C1CCC1CCC(CC1)Cl)CC(C(C2)OC)OC,063937-76-8,-5.388857284,CCN1CCC2CC(OC)C(OC)CC2C1CCC1CCC(Cl)CC1
4136,B-9447,2-ethyl-1.1-dioxo-4H-benzo[e]thiazin-3-one,TUYRLWDFXARPCV-UHFFFAOYSA-N,CCN1C(=O)CC2C(S1(=O)=O)CCCC2,028716-53-2,-1.662491836,CCN1C(=O)CC2CCCCC2S1(=O)=O
4137,B-9448,1.4-dihydro-3.1-benzoxazin-2-one,SYZIUAAQNFJPJY-UHFFFAOYSA-N,O=C1OCC2C(N1)CCCC2,013213-88-2,-1.737457699,O=C1NC2CCCCC2CO1
4138,B-9450,3.4.5-Trimethoxybenzonitrile,OSBQUSPVORCDCU-UHFFFAOYSA-N,COC1CC(C#N)CC(C1OC)OC,001885-35-4,-1.772794018,COC1CC(C#N)CC(OC)C1OC
4139,B-9451,2-methyl-3-phenylbutanoic acid,NRYIIIVJCVRSSH-UHFFFAOYSA-N,CC(C(C(=O)O)C)C1CCCCC1,019731-91-0,-2.772416748,CC(C(=O)O)C(C)C1CCCCC1
4140,B-9452,2-(phenylmethylamino)-1-(2.2.6.6-tetramethylpiperidin-1-yl)ethanone,UUNWYYVWDSDNMG-UHFFFAOYSA-N,O=C(N1C(C)(C)CCCC1(C)C)CNCC1CCCCC1,053725-43-2,-4.48141101,CC1(C)CCCC(C)(C)N1C(=O)CNCC1CCCCC1
4141,B-9453,1-[3.5-dimethyl-4-[(E)-3-phenylprop-2-enyl]piperazin-1-yl]propan-1-one,BMLQSGLVZQCULY-DHZHZOJOSA-N,CCC(=O)N1CC(C)N(C(C1)C)C/C=C/C1CCCCC1,004204-00-6,-3.766805759,CCC(=O)N1CC(C)N(CC=CC2CCCCC2)C(C)C1
4142,B-9454,1-[10-(3-dimethylaminopropyl)phenothiazin-2-yl]propan-1-one,ZQTVCQIJTREKSP-UHFFFAOYSA-N,CCC(=O)C1CCC2C(C1)N(CCCN(C)C)C1C(S2)CCCC1,003568-24-9,-4.490310652,CCC(=O)C1CCC2SC3CCCCC3N(CCCN(C)C)C2C1
4143,B-9456,(E)-N-hydroxy-3-phenylprop-2-enamide,UVDDFTZLVFIQFL-VOTSOKGWSA-N,ONC(=O)/C=C/C1CCCCC1,003669-32-7,-0.987346975,O=C(C=CC1CCCCC1)NO
4144,B-9459,2-(2-dimethylaminoethoxy)ethyl 1-phenylcyclopentane-1-carboxylate,XZUULFZXNSIACY-UHFFFAOYSA-N,CN(CCOCCOC(=O)C1(CCCC1)C1CCCCC1)C,013877-99-1,-3.190428403,CN(C)CCOCCOC(=O)C1(C2CCCCC2)CCCC1
4145,B-9460,N.N-bis(2-chloroethyl)-4-methoxy-3-methylnaphthalen-1-amine,CLZXREZAEIUCGG-UHFFFAOYSA-N,ClCCN(C1CC(C)C(C2C1CCCC2)OC)CCCl,017692-54-5,-6.144232188,COC1C(C)CC(N(CCCl)CCCl)C2CCCCC21
4146,B-9461,2-Methoxy-3-phenylbenzamide,AXOZSLHVJTYWQM-UHFFFAOYSA-N,COC1C(CCCC1C(=O)N)C1CCCCC1,063906-86-5,-2.607565874,COC1C(C(N)=O)CCCC1C1CCCCC1
4147,B-9462,heptadecyl 3-[bis(2-chloroethyl)amino]-4-methylbenzoate,XVQDYVLXIXMLOS-UHFFFAOYSA-N,CCCCCCCCCCCCCCCCCOC(=O)C1CCC(C(C1)N(CCCl)CCCl)C,021447-82-5,-13.45140768,CCCCCCCCCCCCCCCCCOC(=O)C1CCC(C)C(N(CCCl)CCCl)C1
4148,B-9463,(4R.4aR.7S.7aR.12bS)-3-methyl-2.4.4a.5.6.7.7a.13-octahydro-1H-4.12-methanobenzofuro[3.2-e]isoquinoline-7.9-diol,IJVCSMSMFSCRME-KBQPJGBKSA-N,O[C@H]1CC[C@@H]2[C@@]34[C@H]1OC1C4C(C[C@H]2N(CC3)C)CCC1O,000509-60-4,-1.479013036,CN1CCC23C4CCC(O)C2OC2C(O)CCC(CC41)C23
4149,B-9464,3-(3-methylphenoxy)propane-1.2-diol,GIIBAUDXEXFBHL-UHFFFAOYSA-N,OCC(COC1CCCC(C1)C)O,000621-24-9,-1.731676935,CC1CCCC(OCC(O)CO)C1
4150,B-9465,3-(4-butylphenoxy)propane-1.2-diol,OAKWIWZBECYOJE-UHFFFAOYSA-N,CCCCC1CCC(CC1)OCC(CO)O,063834-64-0,-3.29775083,CCCCC1CCC(OCC(O)CO)CC1
4151,B-9466,5-bromo-2-phenylindene-1.3-dione,QFLZIWVSQDZLNW-UHFFFAOYSA-N,BrC1CCC2C(C1)C(=O)C(C2=O)C1CCCCC1,001470-35-5,-4.560212488,O=C1C2CCC(Br)CC2C(=O)C1C1CCCCC1
4152,B-9467,1-[2.6-dimethyl-4-(3-phenylprop-2-enyl)piperazin-1-yl]propan-1-one,JELNWDOXWGBBLO-DHZHZOJOSA-N,CCC(=O)N1C(C)CN(CC1C)C/C=C/C1CCCCC1,004204-01-7,-3.766805759,CCC(=O)N1C(C)CN(CC=CC2CCCCC2)CC1C
4153,B-9468,3-chloro-4-(3-chloro-2-nitrophenyl)-1H-pyrrole,QJBZDBLBQWFTPZ-UHFFFAOYSA-N,ClC1C[NH]CC1C1CCCC(C1[N+](=O)[O-])Cl,001018-71-9,-5.134049424,O=[N+]([O-])C1C(Cl)CCCC1C1CNCC1Cl
4154,B-9470,1-[2-(2.3-dichlorophenyl)ethyl]-6.7-dimethoxy-2-methyl-3.4-dihydro-1H-isoquinoline,VGQBGHMODQMJEJ-UHFFFAOYSA-N,COC1CC2C(CC1OC)CCN(C2CCC1CCCC(C1Cl)Cl)C,063937-49-5,-5.669512187,COC1CC2CCN(C)C(CCC3CCCC(Cl)C3Cl)C2CC1OC
4155,B-9471,5-Butyl-1-methyl-2-nitroimidazole,YGRSFVUXNRPCJA-UHFFFAOYSA-N,[O-][N+](=O)C1NCC(N1C)CCCC,022796-70-9,-3.014978279,CCCCC1CNC([N+](=O)[O-])N1C
4156,B-9473,methyl 6-methyl-2-(2-morpholin-4-ylethoxy)-3-propan-2-ylbenzoate,STLWFARPOWOHSM-UHFFFAOYSA-N,COC(=O)C1C(C)CCC(C1OCCN1CCOCC1)C(C)C,052073-27-5,-3.286960742,COC(=O)C1C(C)CCC(C(C)C)C1OCCN1CCOCC1
4157,B-9474,2-[(4-phenylpiperazin-1-yl)methyl]-1.2.3.4-tetrahydroquinoline,MFVCIOLUKKPQLX-UHFFFAOYSA-N,C1CCC(CC1)N1CCN(CC1)CC1CCC2C(N1)CCCC2,027413-27-0,-3.756173033,C1CCC(N2CCN(CC3CCC4CCCCC4N3)CC2)CC1
4158,B-9475,2-(diethylamino)ethyl 4-amino-3-butoxybenzoate,CMHHMUWAYWTMGS-UHFFFAOYSA-N,CCCCOC1CC(CCC1N)C(=O)OCCN(CC)CC,013718-13-3,-3.464659681,CCCCOC1CC(C(=O)OCCN(CC)CC)CCC1N
4159,B-9476,3-chloro-2-(2.4-dichlorophenyl)oxirane-2-carboxamide,XCWKEQWYRJVKOK-UHFFFAOYSA-N,ClC1CCC(C(C1)Cl)C1(OC1Cl)C(=O)N,023474-37-5,-3.292161581,NC(=O)C1(C2CCC(Cl)CC2Cl)OC1Cl
4160,B-9477,3-(4-chloro-3-methylphenoxy)-2-methylpropane-1.2-diol,QYSUVIBYLINMGG-UHFFFAOYSA-N,OCC(COC1CCC(C(C1)C)Cl)(O)C,063834-74-2,-2.680879927,CC1CC(OCC(C)(O)CO)CCC1Cl
4161,B-9478,5-chloro-3-phenyl-1H-benzimidazol-2-one,UCBSMOSFCAQPAI-UHFFFAOYSA-N,ClC1CCC2C(C1)N(C1CCCCC1)C(=O)[NH]2,054986-47-9,-3.224242048,O=C1NC2CCC(Cl)CC2N1C1CCCCC1
4162,B-9479,1-(4-methoxyphenyl)propan-2-ylhydrazine,VIGQYLPJWCMABB-UHFFFAOYSA-N,NNC(CC1CCC(CC1)OC)C,001743-42-6,-1.774435078,COC1CCC(CC(C)NN)CC1
4163,B-9480,1-[4-(hydroxyamino)phenyl]propan-1-one,SPLXTEULIVJMRZ-UHFFFAOYSA-N,CCC(=O)C1CCC(CC1)NO,000055-34-5,-1.435516387,CCC(=O)C1CCC(NO)CC1
4164,B-9483,1-(4-hydroxy-3-methoxyphenyl)decan-3-one,CZNLTCTYLMYLHL-UHFFFAOYSA-N,CCCCCCCC(=O)CCC1CCC(C(C1)OC)O,027113-22-0,-4.864873154,CCCCCCCC(=O)CCC1CCC(O)C(OC)C1
4165,B-9485,5-Bromo-2-methoxy-N-methyl-3-phenylbenzamide,NGYXKOYBVFNFFH-UHFFFAOYSA-N,CNC(=O)C1CC(Br)CC(C1OC)C1CCCCC1,063887-04-7,-4.899020974,CNC(=O)C1CC(Br)CC(C2CCCCC2)C1OC
4166,B-9486,3-phenyl-1H-benzimidazol-2-one,OLMPQQPQSTVRPB-UHFFFAOYSA-N,O=C1[NH]C2C(N1C1CCCCC1)CCCC2,014813-85-5,-2.424530581,O=C1NC2CCCCC2N1C1CCCCC1
4167,B-9488,1-(3.4-dihydroxyphenyl)ethanone,UCQUAMAQHHEXGD-UHFFFAOYSA-N,CC(=O)C1CCC(C(C1)O)O,001197-09-7,-0.340909632,CC(=O)C1CCC(O)C(O)C1
4168,B-9489,3-(2-chloro-6-propylphenoxy)propane-1.2-diol,WBEXQMNCOCWOMJ-UHFFFAOYSA-N,CCCC1CCCC(C1OCC(CO)O)Cl,063834-71-9,-3.575747234,CCCC1CCCC(Cl)C1OCC(O)CO
4169,B-9490,1-(1H-indol-3-yl)ethanone,VUIMBZIZZFSQEE-UHFFFAOYSA-N,CC(=O)C1C[NH]C2C1CCCC2,000703-80-0,-3.323618377,CC(=O)C1CNC2CCCCC21
4170,B-9491,2-[2-(2-fluorophenyl)-1.3-benzoxazol-5-yl]propanoic acid,LVDKGYHINGQDRF-UHFFFAOYSA-N,OC(=O)C(C1CCC2C(C1)NC(O2)C1CCCCC1F)C,051234-77-6,-3.905033823,CC(C(=O)O)C1CCC2OC(C3CCCCC3F)NC2C1
4171,B-9492,phenoxathiine 10.10-dioxide,XJLRCPYQIPAQCA-UHFFFAOYSA-N,O=S1(=O)C2CCCCC2OC2C1CCCC2,000950-47-0,-4.480600131,O=S1(=O)C2CCCCC2OC2CCCCC21
4172,B-9493,3-hydroxy-2-methyl-1-(8-methyl-3.8-diazabicyclo[3.2.1]octan-3-yl)-2-phenylpropan-1-one,QFCYIUYCKQKVBN-UHFFFAOYSA-N,OCC(C(=O)N1CC2CCC(C1)N2C)(C1CCCCC1)C,063990-62-5,-2.103955831,CN1C2CCC1CN(C(=O)C(C)(CO)C1CCCCC1)C2
4173,B-9494,1-(4-butyl-2.2.6.6-tetramethyl-3H-pyridin-1-yl)-2-(methyl-(phenylmethyl)amino)ethanone,JIOPMQJPYHJGJA-UHFFFAOYSA-N,CCCCC1=CC(N(C(C1)(C)C)C(=O)CN(CC1CCCCC1)C)(C)C,053725-50-1,-6.699645306,CCCCC1=CC(C)(C)N(C(=O)CN(C)CC2CCCCC2)C(C)(C)C1
4174,B-9495,3.6-dimethyl-1-phenyl-5-pyrrolidin-1-ylpyrimidine-2.4-dione,VYMMCESYBCZZER-UHFFFAOYSA-N,CN1C(=O)N(C2CCCCC2)C(C(C1=O)N1CCCC1)C,032150-61-1,-2.808969554,CC1C(N2CCCC2)C(=O)N(C)C(=O)N1C1CCCCC1
4175,B-9496,(2.6-dichloropyridin-4-yl)-morpholin-4-ylmethanone,AIIGKPCMCFGSPV-UHFFFAOYSA-N,O=C(C1CC(Cl)NC(C1)Cl)N1CCOCC1,057803-44-8,-1.482311731,O=C(C1CC(Cl)NC(Cl)C1)N1CCOCC1
4176,B-9497,2.6-dibutoxypyridine-4-carbohydrazide,ZBLIDPKQJOFMPF-UHFFFAOYSA-N,CCCCOC1NC(OCCCC)CC(C1)C(=O)NN,057803-54-0,-3.988358323,CCCCOC1CC(C(=O)NN)CC(OCCCC)N1
4177,B-9498,2-(8-methyl-3.8-diazabicyclo[3.2.1]octan-3-yl)ethyl 1-phenylcyclopentane-1-carboxylate,YBTSMQLFDICCCT-UHFFFAOYSA-N,CN1C2CCC1CN(C2)CCOC(=O)C1(CCCC1)C1CCCCC1,063990-40-9,-3.957147219,CN1C2CCC1CN(CCOC(=O)C1(C3CCCCC3)CCCC1)C2
4178,B-9499,1-ethylsulfonyl-4-fluorobenzene,PRNNIHPVNFPWAH-UHFFFAOYSA-N,CCS(=O)(=O)C1CCC(CC1)F,002924-67-6,-1.249350674,CCS(=O)(=O)C1CCC(F)CC1
4179,B-9501,6-methyl-3-sulfanylidene-2H-1.2.4-triazin-5-one,NKOPQOSBROLOFP-UHFFFAOYSA-N,CC1N[NH]C(=S)[NH]C1=O,007338-83-2,-1.481891825,CC1NNC(=S)NC1=O
4180,B-9503,4-(methyl-(2-phenylethyl)amino)-1-phenylpyrrolidin-2-one,HDKXNOZGPYDIMX-UHFFFAOYSA-N,CN(C1CN(C(=O)C1)C1CCCCC1)CCC1CCCCC1,006212-98-2,-3.40823703,CN(CCC1CCCCC1)C1CC(=O)N(C2CCCCC2)C1
4181,B-9504,4-methoxy-6-methylpyran-2-one,MTZAUZNQAMNFME-UHFFFAOYSA-N,COC1CC(C)OC(=O)C1,000672-89-9,0.122957029,COC1CC(=O)OC(C)C1
4182,B-9505,3-(2-prop-2-enylphenoxy)propane-1.2-diol,NRIXNDFJJSOBCR-UHFFFAOYSA-N,C=CCC1CCCCC1OCC(CO)O,063905-22-6,-2.643738467,C=CCC1CCCCC1OCC(O)CO
4183,B-9507,3-Chloro-4-methylbenzoic acid,SDKUOEOJAXGCLU-UHFFFAOYSA-N,OC(=O)C1CCC(C(C1)Cl)C,005162-82-3,-3.064641326,CC1CCC(C(=O)O)CC1Cl
4184,B-9508,1-methylsulfonyl-2H-quinoline,IESYQTXPSQWIGA-UHFFFAOYSA-N,CS(=O)(=O)N1CC=CC2C1CCCC2,030831-92-6,-2.816901764,CS(=O)(=O)N1CC=CC2CCCCC21
4185,B-9509,6-methoxy-1-methyl-2.3.4.9-tetrahydro-1H-pyrido[3.4-b]indole,RDUORFDQRFHYBF-UHFFFAOYSA-N,COC1CCC2C(C1)C1CCNC(C1[NH]2)C,001210-56-6,-2.04811904,COC1CCC2NC3C(C)NCCC3C2C1
4186,B-9510,1-(phenoxy)butane-2.3-diol,XJBQYXCXGYSVBZ-UHFFFAOYSA-N,OC(C(O)C)COC1CCCCC1,064039-44-7,-1.279681697,CC(O)C(O)COC1CCCCC1
4187,B-9511,2-amino-1-(2.5-dimethoxyphenyl)propan-1-ol,WJAJPNHVVFWKKL-UHFFFAOYSA-N,COC1CCC(C(C1)C(C(N)C)O)OC,000390-28-3,-0.057647603,COC1CCC(OC)C(C(O)C(C)N)C1
4188,B-9513,3-(2.4-dichlorophenoxy)propane-1.2-diol,ZIBOAPBPXIPVLG-UHFFFAOYSA-N,OCC(COC1CCC(CC1Cl)Cl)O,034646-53-2,-2.764227428,OCC(O)COC1CCC(Cl)CC1Cl
4189,B-9514,4-dimethylamino-2-methyl-2-phenylbutanamide,QLNJAKWTFVFGEM-UHFFFAOYSA-N,CN(CCC(C1CCCCC1)(C(=O)N)C)C,002977-16-4,-1.758714794,CN(C)CCC(C)(C(N)=O)C1CCCCC1
4190,B-9515,3-[(2-ethoxyphenyl)methoxy]propane-1.2-diol,LBRMMZKQEMFFPV-UHFFFAOYSA-N,CCOC1CCCCC1COCC(CO)O,063834-81-1,-1.818072373,CCOC1CCCCC1COCC(O)CO
4191,B-9519,2-Amino-N-phenylbenzamide,FDPVTENMNDHFNK-UHFFFAOYSA-N,O=C(C1CCCCC1N)NC1CCCCC1,004424-17-3,-3.057338847,NC1CCCCC1C(=O)NC1CCCCC1
4192,B-9520,S-[2-(di(propan-2-yl)amino)ethyl] 9-(trifluoromethyl)pyrido[2.3-b][1.4]benzothiazine-5-carbothioate,KVNCMNVGQHEHGC-UHFFFAOYSA-N,CC(N(C(C)C)CCSC(=O)N1C2CCCNC2SC2C1CCCC2C(F)(F)F)C,035806-02-1,-6.674466654,CC(C)N(CCSC(=O)N1C2CCCNC2SC2C1CCCC2C(F)(F)F)C(C)C
4193,B-9521,phenylmethyl 2-methoxy-2H-quinoline-1-carboxylate,VSUWLJBAVIYETB-UHFFFAOYSA-N,COC1C=CC2C(N1C(=O)OCC1CCCCC1)CCCC2,030831-75-5,-5.305966488,COC1C=CC2CCCCC2N1C(=O)OCC1CCCCC1
4194,B-9522,2-methyl-3-(2-methylphenoxy)propane-1.2-diol,CSVLJZZEXDDQJF-UHFFFAOYSA-N,OCC(COC1CCCCC1C)(O)C,063991-97-9,-1.879501049,CC1CCCCC1OCC(C)(O)CO
4195,B-9523,1.5-Dimethyl-2-nitroimidazole,BILWDWLNZFTXAN-UHFFFAOYSA-N,[O-][N+](=O)C1NCC(N1C)C,005213-48-9,-1.450649337,CC1CNC([N+](=O)[O-])N1C
4196,B-9525,4-chloro-N-(2-diethylaminoethyl)-2-prop-2-enoxybenzamide,UHWFVIPXDFZTFA-UHFFFAOYSA-N,C=CCOC1CC(Cl)CCC1C(=O)NCCN(CC)CC,005337-03-1,-4.416964775,C=CCOC1CC(Cl)CCC1C(=O)NCCN(CC)CC
4197,B-9526,1-[4-(3-hydroxyphenyl)-1-methylpiperidin-4-yl]propan-1-one,ALFGKMXHOUSVAD-UHFFFAOYSA-N,CCC(=O)C1(CCN(CC1)C)C1CCCC(C1)O,000469-79-4,-0.473637562,CCC(=O)C1(C2CCCC(O)C2)CCN(C)CC1
4198,B-9528,N'-[4.5-di(phenyl)-1.3-oxazol-2-yl]-N.N-dimethylpropane-1.3-diamine,OUGWHDLNULSJCN-UHFFFAOYSA-N,CN(CCCNC1NC(C(O1)C1CCCCC1)C1CCCCC1)C,020503-85-9,-4.103957794,CN(C)CCCNC1NC(C2CCCCC2)C(C2CCCCC2)O1
4199,B-9529,3-(2-methylpiperidin-1-yl)propyl N-naphthalen-1-ylcarbamate,ROHRQKMUJHLVRA-UHFFFAOYSA-N,O=C(NC1CCCC2C1CCCC2)OCCCN1CCCCC1C,063982-21-8,-4.752627556,CC1CCCCN1CCCOC(=O)NC1CCCC2CCCCC21
4200,B-9530,(12S)-17-methoxy-11-methyl-3.5-dioxa-11-azapentacyclo[10.7.1.02.6.08.20.014.19]icosa-1(20).2(6).7.14(19).15.17-hexaen-18-ol,LODGIKWNLDQZBM-LBPRGKRZSA-N,COC1CCC2C(C1O)C1C3OCOC3CC3C1[C@H](C2)N(C)CC3,000298-45-3,-4.118618872,COC1CCC2CC3C4C(CCN3C)CC3OCOC3C4C2C1O
4201,B-9532,3-phenyl-2-sulfanylidene-1.3-thiazolidin-4-one,DVRWEKGUWZINTQ-UHFFFAOYSA-N,O=C1CSC(=S)N1C1CCCCC1,001457-46-1,-1.256271833,O=C1CSC(=S)N1C1CCCCC1
4202,B-9533,(1.2.2.6.6-pentamethylpiperidin-3-yl) 2-hydroxy-2.2-di(phenyl)acetate,YZLDURCREAJHLI-UHFFFAOYSA-N,CN1C(C)(C)CCC(C1(C)C)OC(=O)C(C1CCCCC1)(C1CCCCC1)O,063991-46-8,-4.388388146,CN1C(C)(C)CCC(OC(=O)C(O)(C2CCCCC2)C2CCCCC2)C1(C)C
4203,B-9535,3.5-Bis(trifluoromethyl)benzoic acid,HVFQJWGYVXKLTE-UHFFFAOYSA-N,OC(=O)C1CC(CC(C1)C(F)(F)F)C(F)(F)F,000725-89-3,-4.329034587,O=C(O)C1CC(C(F)(F)F)CC(C(F)(F)F)C1
4204,B-9536,2-Methoxy-N-methyl-3-phenylbenzamide,CYWGCYGKXOAPHY-UHFFFAOYSA-N,CNC(=O)C1CCCC(C1OC)C1CCCCC1,063906-83-2,-3.361350006,CNC(=O)C1CCCC(C2CCCCC2)C1OC
4205,B-9537,1.13-dimethyl-10-(2-phenylethyl)-10-azatricyclo[7.3.1.02.7]trideca-2(7).3.5-trien-4-ol,ZQHYKVKNPWDQSL-UHFFFAOYSA-N,OC1CCC2C(C1)C1(C)CCN(C(C2)C1C)CCC1CCCCC1,000127-35-5,-4.942347946,CC1C2CC3CCC(O)CC3C1(C)CCN2CCC1CCCCC1
4206,B-9538,(2-acetyloxyphenyl) acetate,FBSAITBEAPNWJG-UHFFFAOYSA-N,CC(=O)OC1CCCCC1OC(=O)C,000635-67-6,-2.072052014,CC(=O)OC1CCCCC1OC(C)=O
4207,B-9540,methyl 2-(3-diethylamino-2-hydroxypropoxy)-6-methyl-3-propan-2-ylbenzoate,YHRJYEJUZXLIEM-UHFFFAOYSA-N,CCN(CC(COC1C(CCC(C1C(=O)OC)C)C(C)C)O)CC,053206-83-0,-3.680033172,CCN(CC)CC(O)COC1C(C(C)C)CCC(C)C1C(=O)OC
4208,B-9541,(2R)-2-(2-chlorophenoxy)propanoic acid,ZGWNXHRVUJVMCP-ZCFIWIBFSA-N,OC(=O)[C@H](OC1CCCCC1Cl)C,031460-41-0,-2.22,CC(OC1CCCCC1Cl)C(=O)O
4209,B-9542,5-Ethyl-1-methyl-2-nitroimidazole,IKJZVLQZWUDHFV-UHFFFAOYSA-N,CCC1CNC(N1C)[N+](=O)[O-],022796-67-4,-1.970663286,CCC1CNC([N+](=O)[O-])N1C
4210,B-9543,1-(ethoxy-ethylsulfanylphosphoryl)oxy-4-nitrobenzene,BGWJTLLALYACOG-UHFFFAOYSA-N,CCOP(=O)(OC1CCC(CC1)[N+](=O)[O-])SCC,000597-88-6,-3.941833629,CCOP(=O)(OC1CCC([N+](=O)[O-])CC1)SCC