,C_ID,Name,InChIKey,SMILES,CAS,LogS,smiles_canon
2046,B-6776,1-(4-chlorophenyl)-2-cyclopropylpropan-1-ol,MMHBKNHHEADGHK-UHFFFAOYSA-N,CC(C1CC1)C(C2=CC=C(C=C2)Cl)O,123989-28-6,-3.244489267,CC(C1CC1)C(O)c1ccc(Cl)cc1
2047,B-6777,2-hydroxybenzonitrile,CHZCERSEMVWNHL-UHFFFAOYSA-N,C1=CC=C(C(=C1)C#N)O,000611-20-1,-0.774954689,N#Cc1ccccc1O
2048,B-6778,3-(aminomethyl)-3.5.5-trimethylcyclohexan-1-ol,YFEAYNIMJBHJCM-UHFFFAOYSA-N,CC1(CC(CC(C1)(C)CN)O)C,015647-11-7,0.489004442,CC1(C)CC(O)CC(C)(CN)C1
2049,B-6779,11-ethyl-5-methylpentadecanoic acid,DYGIZCLLGGJWQJ-UHFFFAOYSA-N,CCCCC(CC)CCCCCC(C)CCCC(=O)O,068201-37-6,-5.056113563,CCCCC(CC)CCCCCC(C)CCCC(=O)O
2050,B-6780,2.4-di(ethenyl)phenol,GZGSEMRMKBBQGA-UHFFFAOYSA-N,C=CC1=CC(=C(C=C1)O)C=C,061788-44-1,-4.874878302,C=Cc1ccc(O)c(C=C)c1
2051,B-6782,1.1.3.3-Tetrabutylurea,SNDGLCYYBKJSOT-UHFFFAOYSA-N,CCCCN(CCCC)C(=O)N(CCCC)CCCC,004559-86-8,-4.820589695,CCCCN(CCCC)C(=O)N(CCCC)CCCC
2052,B-6783,2-phenylethylazanium,BHHGXPLMPWCGHP-UHFFFAOYSA-N,C1=CC=C(C=C1)CCN,000064-04-0,-0.285973358,NCCc1ccccc1
2053,B-6784,(1-hydroxycyclohexyl)-phenylmethanone,QNODIIQQMGDSEF-UHFFFAOYSA-N,C1CCC(CC1)(C(=O)C2=CC=CC=C2)O,000947-19-3,-2.664778493,O=C(c1ccccc1)C1(O)CCCCC1
2054,B-6785,3-(4-propan-2-ylphenyl)butanal,HQQPOVNESMNPNH-UHFFFAOYSA-N,CC(C)C1=CC=C(C=C1)C(C)CC=O,000103-95-7,-3.459859706,CC(C)c1ccc(C(C)CC=O)cc1
2055,B-6786,4.5.6.7-tetrabromo-2-benzofuran-1.3-dione,QHWKHLYUUZGSCW-UHFFFAOYSA-N,C12=C(C(=C(C(=C1Br)Br)Br)Br)C(=O)OC2=O,000632-79-1,-3.58705791,O=C1OC(=O)c2c(Br)c(Br)c(Br)c(Br)c21
2056,B-6787,ethyl (3R)-piperidine-3-carboxylate,XIWBSOUNZWSFKU-SSDOTTSWSA-N,CCOC(=O)[C@@H]1CCCNC1,004359-47-1,-3.079877949,CCOC(=O)C1CCCNC1
2057,B-6789,tricyclo[9.4.0.03.8]pentadeca-1(15).3.5.7.9.11.13-heptaen-2-one,SNVTZAIYUGUKNI-UHFFFAOYSA-N,C1=CC=C2C(=C1)C=CC3=CC=CC=C3C2=O,002222-33-5,-4.653372369,O=c1c2ccccc2ccc2ccccc12
2058,B-6790,1-methyl-2.3-bis(phenylmethyl)benzene,PKQYSCBUFZOAPE-UHFFFAOYSA-N,CC1=C(C(=CC=C1)CC2=CC=CC=C2)CC3=CC=CC=C3,053585-53-8,-7.17991706,Cc1cccc(Cc2ccccc2)c1Cc1ccccc1
2059,B-6791,(2.2.2-trichloro-1-phenylethyl) acetate,JKRWZLOCPLZZEI-UHFFFAOYSA-N,CC(=O)OC(C1=CC=CC=C1)C(Cl)(Cl)Cl,000090-17-5,-4.20832136,CC(=O)OC(c1ccccc1)C(Cl)(Cl)Cl
2060,B-6792,3-(4-methoxyphenyl)-2-methylpropanal,VLFBSPUPYFTTNF-UHFFFAOYSA-N,CC(CC1=CC=C(C=C1)OC)C=O,005462-06-6,-2.215271944,COc1ccc(CC(C)C=O)cc1
2061,B-6793,(5E)-6.10-dimethylundeca-5.9-dien-2-one,HNZUNIKWNYHEJJ-FMIVXFBMSA-N,CC(=CCC/C(=C/CCC(=O)C)/C)C,000689-67-8,-4.3407323,CC(=O)CCC=C(C)CCC=C(C)C
2062,B-6794,3-methyl-5-phenylpentan-1-ol,OXYRENDGHPGWKV-UHFFFAOYSA-N,CC(CCC1=CC=CC=C1)CCO,055066-48-3,-2.660022428,CC(CCO)CCc1ccccc1
2063,B-6795,2.4.4-trimethylpentan-2-yl 2-ethylhexaneperoxoate,RFLMOBVJXKBPQW-UHFFFAOYSA-N,CCCCC(CC)C(=O)OOC(C)(C)CC(C)(C)C,022288-43-3,-5.949528721,CCCCC(CC)C(=O)OOC(C)(C)CC(C)(C)C
2064,B-6796,butyl 3-sulfanylpropanoate,MGFFVSDRCRVHLC-UHFFFAOYSA-N,CCCCOC(=O)CCS,016215-21-7,-2.227903836,CCCCOC(=O)CCS
2065,B-6797,2-[(2E)-3.7-dimethylocta-2.6-dienyl]cyclopentan-1-one,ZNSALEJHPSBXDK-JLHYYAGUSA-N,CC(=CCC/C(=C/CC1CCCC1=O)/C)C,068133-79-9,-4.987095081,CC(C)=CCCC(C)=CCC1CCCC1=O
2066,B-6798,di(phenyl)methanimine,SXZIXHOMFPUIRK-UHFFFAOYSA-N,C1=CC=C(C=C1)C(=N)C2=CC=CC=C2,001013-88-3,-2.781124651,N=C(c1ccccc1)c1ccccc1
2067,B-6799,1.2.4.5-tetramethylimidazole,WLUJHMKCLOIRSK-UHFFFAOYSA-N,CC1=C(N(C(=N1)C)C)C,001739-83-9,-6.014888595,Cc1nc(C)n(C)c1C
2068,B-6800,Phenylmethyl propanoate,VHOMAPWVLKRQAZ-UHFFFAOYSA-N,CCC(=O)OCC1=CC=CC=C1,000122-63-4,-3.215382674,CCC(=O)OCc1ccccc1
2069,B-6801,1-phenyldiazenylnaphthalen-2-ol,MRQIXHXHHPWVIL-UHFFFAOYSA-N,C1=CC=C(C=C1)N=NC2=C(C=CC3=CC=CC=C32)O,000842-07-9,-7.128951663,Oc1ccc2ccccc2c1N=Nc1ccccc1
2070,B-6802,oxiran-2-ylmethyl 2-ethyl-2.5-dimethylhexanoate,DHEHEJGXTUCSQF-UHFFFAOYSA-N,CCC(C)(CCC(C)C)C(=O)OCC1CO1,026761-45-5,-3.513466458,CCC(C)(CCC(C)C)C(=O)OCC1CO1
2071,B-6803,N-ethyl-5-methyl-2-propan-2-ylcyclohexane-1-carboxamide,VUNOFAIHSALQQH-UHFFFAOYSA-N,CCNC(=O)C1CC(CCC1C(C)C)C,039711-79-0,-3.055394187,CCNC(=O)C1CC(C)CCC1C(C)C
2072,B-6804,Phenylmethyl 2-methylpropanoate,UIKJRDSCEYGECG-UHFFFAOYSA-N,CC(C)C(=O)OCC1=CC=CC=C1,000103-28-6,-2.255574761,CC(C)C(=O)OCc1ccccc1
2073,B-6805,N-tert-butylprop-2-enamide,XFHJDMUEHUHAJW-UHFFFAOYSA-N,CC(C)(C)NC(=O)C=C,000107-58-4,-2.104438626,C=CC(=O)NC(C)(C)C
2074,B-6806,2-(4-fluorophenyl)-5-[(5-iodo-2-methylphenyl)methyl]thiophene,MGXZKAYHSITHMW-UHFFFAOYSA-N,CC1=C(C=C(C=C1)I)CC2=CC=C(S2)C3=CC=C(C=C3)F,898566-17-1,-7.784874262,Cc1ccc(I)cc1Cc1ccc(-c2ccc(F)cc2)s1
2075,B-6807,2-ethylhexyl 2-sulfanylacetate,OWHSTLLOZWTNTQ-UHFFFAOYSA-N,CCCCC(CC)COC(=O)CS,007659-86-1,-4.635464193,CCCCC(CC)COC(=O)CS
2076,B-6808,1-(3-METHOXYPHENYL)ETHANONE,BAYUSCHCCGXLAY-UHFFFAOYSA-N,CC(=O)C1=CC(=CC=C1)OC,000586-37-8,-0.673270388,COc1cccc(C(C)=O)c1
2077,B-6809,(NZ)-N-ethylidenehydroxylamine,FZENGILVLUJGJX-IHWYPQMZSA-N,C/C=N\O,000107-29-9,0.495822403,CC=NO
2078,B-6810,3-amino-2-chloro-6-methylphenol,XYRDGCCCBJITBH-UHFFFAOYSA-N,CC1=C(C(=C(C=C1)N)Cl)O,084540-50-1,-1.481550941,Cc1ccc(N)c(Cl)c1O
2079,B-6811,3-Phenylbutanal,MYHGOWDLVRDUFA-UHFFFAOYSA-N,CC(CC=O)C1=CC=CC=C1,016251-77-7,-1.869830516,CC(CC=O)c1ccccc1
2080,B-6812,(3E.5E)-6.10-dimethylundeca-3.5.9-trien-2-one,JXJIQCXXJGRKRJ-KOOBJXAQSA-N,CC(=CCC/C(=C/C=C/C(=O)C)/C)C,000141-10-6,-3.297208453,CC(=O)C=CC=C(C)CCC=C(C)C
2081,B-6813,octanoyl octaneperoxoate,SRSFOMHQIATOFV-UHFFFAOYSA-N,CCCCCCCC(=O)OOC(=O)CCCCCCC,000762-16-3,-7.611891047,CCCCCCCC(=O)OOC(=O)CCCCCCC
2082,B-6814,2-cyclohexylidene-2-phenylacetonitrile,ZHOOOLQOWQVYOE-UHFFFAOYSA-N,C1CCC(=C(C#N)C2=CC=CC=C2)CC1,010461-98-0,-4.419999781,N#CC(=C1CCCCC1)c1ccccc1
2083,B-6815,2-chloro-3.5-dimethylphenol,ZXPLGLMEXWSLCX-UHFFFAOYSA-N,CC1=CC(=C(C(=C1)O)Cl)C,005538-41-0,-2.717702394,Cc1cc(C)c(Cl)c(O)c1
2084,B-6816,4-[(4-aminocyclohexyl)methyl]cyclohexan-1-amine,DZIHTWJGPDVSGE-UHFFFAOYSA-N,C1CC(CCC1CC2CCC(CC2)N)N,001761-71-3,-1.233061767,NC1CCC(CC2CCC(N)CC2)CC1
2085,B-6817,N.N-Dimethyldodecanamide,BDYUSDIJIDGWCY-UHFFFAOYSA-N,CCCCCCCCCCCC(=O)N(C)C,003007-53-2,-3.909301703,CCCCCCCCCCCC(=O)N(C)C
2086,B-6818,3-chloropropyl-triethoxysilane,KSCAZPYHLGGNPZ-UHFFFAOYSA-N,CCO[Si](CCCCl)(OCC)OCC,005089-70-3,-3.328581827,CCO[Si](CCCCl)(OCC)OCC
2087,B-6819,4-bromo-2.6-difluorobenzoic acid,IRHPJGPQWZEZRX-UHFFFAOYSA-N,C1=C(C=C(C(=C1F)C(=O)O)F)Br,183065-68-1,-2.152032425,O=C(O)c1c(F)cc(Br)cc1F
2088,B-6820,4-(2.4.4-trimethylpentan-2-yl)-N-[4-(2.4.4-trimethylpentan-2-yl)phenyl]aniline,GQBHYWDCHSZDQU-UHFFFAOYSA-N,CC(C)(C)CC(C)(C)C1=CC=C(C=C1)NC2=CC=C(C=C2)C(C)(C)CC(C)(C)C,015721-78-5,-6.876613421,CC(C)(C)CC(C)(C)c1ccc(Nc2ccc(C(C)(C)CC(C)(C)C)cc2)cc1
2089,B-6821,2-methylanthracene-9.10-dione,NJWGQARXZDRHCD-UHFFFAOYSA-N,CC1=CC2=C(C=C1)C(=O)C3=CC=CC=C3C2=O,000084-54-8,-6.117145858,Cc1ccc2c(c1)C(=O)c1ccccc1C2=O
2090,B-6822,2-(phenoxy)ethyl 2-methylpropanoate,MJTPMXWJHPOWGH-UHFFFAOYSA-N,CC(C)C(=O)OCCOC1=CC=CC=C1,000103-60-6,-3.026342702,CC(C)C(=O)OCCOc1ccccc1
2091,B-6823,3-Phenylpropyl acetate,JRJGKUTZNBZHNK-UHFFFAOYSA-N,CC(=O)OCCCC1=CC=CC=C1,000122-72-5,-2.657531777,CC(=O)OCCCc1ccccc1
2092,B-6824,2.6-di(phenyl)phenol,ATGFTMUSEPZNJD-UHFFFAOYSA-N,C1=CC=C(C=C1)C2=C(C(=CC=C2)C3=CC=CC=C3)O,002432-11-3,-5.683908342,Oc1c(-c2ccccc2)cccc1-c1ccccc1
2093,B-6825,2-(diethoxymethyl)hept-1-enylbenzene,MPKOLWUWOADQCX-UHFFFAOYSA-N,CCCCCC(=CC1=CC=CC=C1)C(OCC)OCC,060763-41-9,-5.172053376,CCCCCC(=Cc1ccccc1)C(OCC)OCC
2094,B-6826,2-phenylethyl 2.2-dimethylpropanoate,DPVYDTACPLLHCF-UHFFFAOYSA-N,CC(C)(C)C(=O)OCCC1=CC=CC=C1,067662-96-8,-3.675277984,CC(C)(C)C(=O)OCCc1ccccc1
2095,B-6827,1-(2-tert-butylcyclohexyl)oxybutan-2-ol,GQBVHGLNSHPKPG-UHFFFAOYSA-N,CCC(COC1CCCCC1C(C)(C)C)O,139504-68-0,-3.698730459,CCC(O)COC1CCCCC1C(C)(C)C
2096,B-6828,6-Chlorohexan-2-one,CMDIDTNMHQUVPE-UHFFFAOYSA-N,CC(=O)CCCCCl,010226-30-9,-1.415571617,CC(=O)CCCCCl
2097,B-6829,2-ethylhexyl 7-oxabicyclo[4.1.0]heptane-3-carboxylate,ABAMRJVWDHJBTI-UHFFFAOYSA-N,CCCCC(CC)COC(=O)C1CCC2C(C1)O2,062256-00-2,-3.326282254,CCCCC(CC)COC(=O)C1CCC2OC2C1
2098,B-6831,pyridine-2-carbonitrile,FFNVQNRYTPFDDP-UHFFFAOYSA-N,C1=CC=NC(=C1)C#N,000100-70-9,-0.172394406,N#Cc1ccccn1
2099,B-6832,3-DIETHYLAMINOPHENOL,WAVOOWVINKGEHS-UHFFFAOYSA-N,CCN(CC)C1=CC(=CC=C1)O,000091-68-9,-2.042009734,CCN(CC)c1cccc(O)c1
2100,B-6833,[(1S.6R)-7-oxabicyclo[4.1.0]heptan-3-yl]methyl 2-methylprop-2-enoate,FYYIUODUDSPAJQ-XVBQNVSMSA-N,CC(=C)C(=O)OCC1CC[C@@H]2[C@H](C1)O2,082428-30-6,-1.767755121,C=C(C)C(=O)OCC1CCC2OC2C1
2101,B-6834,N.2.3-trimethyl-2-propan-2-ylbutanamide,RWAXQWRDVUOOGG-UHFFFAOYSA-N,CC(C)C(C)(C(C)C)C(=O)NC,051115-67-4,-1.394862635,CNC(=O)C(C)(C(C)C)C(C)C
2102,B-6835,2.5-bis(tert-butylperoxy)-2.5-dimethylhex-3-yne,ODBCKCWTWALFKM-UHFFFAOYSA-N,CC(C)(C)OOC(C)(C)C#CC(C)(C)OOC(C)(C)C,001068-27-5,-5.114565496,CC(C)(C)OOC(C)(C)C#CC(C)(C)OOC(C)(C)C
2103,B-6836,3-[(E)-pentadec-8-enyl]phenol,YLKVIMNNMLKUGJ-BQYQJAHWSA-N,CCCCCC/C=C/CCCCCCCC1=CC(=CC=C1)O,008007-24-7,-5.996424104,CCCCCCC=CCCCCCCCc1cccc(O)c1
2104,B-6837,2.4.4-trimethylpentan-2-yl 3-(5.5-dimethylhexyl)dioxirane-3-carboxylate,CRJIYMRJTJWVLU-UHFFFAOYSA-N,CC(C)(C)CCCCC1(OO1)C(=O)OC(C)(C)CC(C)(C)C,051240-95-0,-6.971231933,CC(C)(C)CCCCC1(C(=O)OC(C)(C)CC(C)(C)C)OO1
2105,B-6838,2-(phenylmethoxy)naphthalene,WLTCCDHHWYAMCG-UHFFFAOYSA-N,C1=CC=C(C=C1)COC2=CC3=CC=CC=C3C=C2,000613-62-7,-6.477672125,c1ccc(COc2ccc3ccccc3c2)cc1
2106,B-6839,2-propan-2-yloxyethyl acetate,HCDJVEYJSSTYSW-UHFFFAOYSA-N,CC(C)OCCOC(=O)C,019234-20-9,-0.165774647,CC(=O)OCCOC(C)C
2107,B-6840,4-ETHENYLPHENOL,FUGYGGDSWSUORM-UHFFFAOYSA-N,C=CC1=CC=C(C=C1)O,002628-17-3,-1.244669842,C=Cc1ccc(O)cc1
2108,B-6841,2-(1-ethoxyethoxy)ethylbenzene,QQDGMPOYFGNLMT-UHFFFAOYSA-N,CCOC(C)OCCC1=CC=CC=C1,002556-10-7,-2.632314245,CCOC(C)OCCc1ccccc1
2109,B-6842,4-hydroxy-2.5-dimethylfuran-3-one,INAXVXBDKKUCGI-UHFFFAOYSA-N,CC1C(=O)C(=C(O1)C)O,003658-77-3,0.137870654,CC1=C(O)C(=O)C(C)O1
2110,B-6843,methyl 3-sulfanylpropanoate,LDTLDBDUBGAEDT-UHFFFAOYSA-N,COC(=O)CCS,002935-90-2,-0.75756231,COC(=O)CCS
2111,B-6845,Phenylmethyl 3-methylbutanoate,HVJKZICIMIWFCP-UHFFFAOYSA-N,CC(C)CC(=O)OCC1=CC=CC=C1,000103-38-8,-2.906906216,CC(C)CC(=O)OCc1ccccc1
2112,B-6846,2.6.6-Trimethylcyclohex-2-ene-1.4-dione,AYJXHIDNNLJQDT-UHFFFAOYSA-N,CC1=CC(=O)CC(C1=O)(C)C,001125-21-9,-0.877903009,CC1=CC(=O)CC(C)(C)C1=O
2113,B-6847,Methyl 2-phenylacetate,CRZQGDNQQAALAY-UHFFFAOYSA-N,COC(=O)CC1=CC=CC=C1,000101-41-7,-2.119697995,COC(=O)Cc1ccccc1
2114,B-6848,4-[(4-amino-3-methylcyclohexyl)methyl]-2-methylcyclohexan-1-amine,IGSBHTZEJMPDSZ-UHFFFAOYSA-N,CC1CC(CCC1N)CC2CCC(C(C2)C)N,006864-37-5,-1.775274313,CC1CC(CC2CCC(N)C(C)C2)CCC1N
2115,B-6849,tert-butyl benzenecarboperoxoate,GJBRNHKUVLOCEB-UHFFFAOYSA-N,CC(C)(C)OOC(=O)C1=CC=CC=C1,000614-45-9,-2.776432502,CC(C)(C)OOC(=O)c1ccccc1
2116,B-6850,octane-1.2-diol,AEIJTFQOBWATKX-UHFFFAOYSA-N,CCCCCCC(CO)O,001117-86-8,-1.289972247,CCCCCCC(O)CO
2117,B-6851,(2.2-dimethyl-3-octanoyloxypropyl) octanoate,WFXHUBZUIFLWCV-UHFFFAOYSA-N,CCCCCCCC(=O)OCC(C)(C)COC(=O)CCCCCCC,031335-74-7,-5.190386027,CCCCCCCC(=O)OCC(C)(C)COC(=O)CCCCCCC
2118,B-6852,2-ethylhexyl 3-sulfanylpropanoate,SUODCTNNAKSRHB-UHFFFAOYSA-N,CCCCC(CC)COC(=O)CCS,050448-95-8,-3.526247,CCCCC(CC)COC(=O)CCS
2119,B-6853,2-(2-butoxyethoxy)ethyl 2-methylprop-2-enoate,QGTBRAFPWNISIJ-UHFFFAOYSA-N,CCCCOCCOCCOC(=O)C(=C)C,007328-22-5,-2.015947375,C=C(C)C(=O)OCCOCCOCCCC
2120,B-6855,2-morpholin-4-ylsulfanyl-1.3-benzothiazole,MHKLKWCYGIBEQF-UHFFFAOYSA-N,C1COCCN1SC2=NC3=CC=CC=C3S2,000102-77-2,-3.810936293,c1ccc2sc(SN3CCOCC3)nc2c1
2121,B-6856,(2R)-6-fluoro-2-[(2R)-oxiran-2-yl]chroman,GVZDIJGBXSDSEP-GHMZBOCLSA-N,C1CC2=C(C=CC(=C2)F)O[C@H]1[C@H]3CO3,197706-50-6,-2.487543552,Fc1ccc2c(c1)CCC(C1CO1)O2
2122,B-6857,butyl 3-hydroxybutanoate,LHDWRKCOQQHAMP-UHFFFAOYSA-N,CCCCOC(=O)CC(C)O,053605-94-0,-0.718975242,CCCCOC(=O)CC(C)O
2123,B-6858,6-methylheptyl 3-sulfanylpropanoate,ZHUWXKIPGGZNJW-UHFFFAOYSA-N,CC(C)CCCCCOC(=O)CCS,030374-01-7,-4.454364993,CC(C)CCCCCOC(=O)CCS
2124,B-6859,2-(5-ethenyl-5-methyloxolan-2-yl)propan-2-ol,BRHDDEIRQPDPMG-UHFFFAOYSA-N,CC1(CCC(O1)C(C)(C)O)C=C,060047-17-8,-1.799725907,C=CC1(C)CCC(C(C)(C)O)O1
2125,B-6860,3-(4-tert-butylphenyl)-2-methylpropanal,SDQFDHOLCGWZPU-UHFFFAOYSA-N,CC(CC1=CC=C(C=C1)C(C)(C)C)C=O,000080-54-6,-3.657080086,CC(C=O)Cc1ccc(C(C)(C)C)cc1
2126,B-6861,furan-2.5-dione,FPYJFEHAWHCUMM-UHFFFAOYSA-N,C1=CC(=O)OC1=O,000108-31-6,0.618111378,O=C1C=CC(=O)O1
2127,B-6862,propyl (2S)-2-(2-methylbutan-2-yloxy)propanoate,KPUAQAYQMYWKBV-VIFPVBQESA-N,CCCOC(=O)[C@H](C)OC(C)(C)CC,319002-92-1,-2.301659481,CCCOC(=O)C(C)OC(C)(C)CC
2128,B-6863,2-methoxyethyl 2-methylprop-2-enoate,YXYJVFYWCLAXHO-UHFFFAOYSA-N,CC(=C)C(=O)OCCOC,006976-93-8,-0.927150515,C=C(C)C(=O)OCCOC
2129,B-6864,ethyl 2-cyanoprop-2-enoate,FGBJXOREULPLGL-UHFFFAOYSA-N,CCOC(=O)C(=C)C#N,007085-85-0,-6.717150203,C=C(C#N)C(=O)OCC
2130,B-6865,2-ethoxyethyl 2-methylprop-2-enoate,SFPNZPQIIAJXGL-UHFFFAOYSA-N,CCOCCOC(=O)C(=C)C,002370-63-0,-0.967473311,C=C(C)C(=O)OCCOCC
2131,B-6867,1.3-di(ethenyl)imidazolidin-2-one,HMYBDZFSXBJDGL-UHFFFAOYSA-N,C=CN1CCN(C1=O)C=C,013811-50-2,-1.155882672,C=CN1CCN(C=C)C1=O
2132,B-6868,2-methylprop-2-enoyl 2-methylprop-2-enoate,DCUFMVPCXCSVNP-UHFFFAOYSA-N,CC(=C)C(=O)OC(=O)C(=C)C,000760-93-0,-0.196760275,C=C(C)C(=O)OC(=O)C(=C)C
2133,B-6869,(E)-3-phenylprop-2-enenitrile,ZWKNLRXFUTWSOY-QPJJXVBHSA-N,C1=CC=C(C=C1)/C=C/C#N,001885-38-7,-2.082963617,N#CC=Cc1ccccc1
2134,B-6871,3-nitro-2H-pyrazole,MZRUFMBFIKGOAL-UHFFFAOYSA-N,C1=C(NN=C1)[N+](=O)[O-],026621-44-3,-1.285471285,O=[N+]([O-])c1ccn[nH]1
2135,B-6872,(3R)-3-aminobutan-1-ol,AGMZSYQMSHMXLT-SCSAIBSYSA-N,C[C@H](CCO)N,061477-40-5,1.049941987,CC(N)CCO
2136,B-6873,1.4-bis(2-tert-butylperoxypropan-2-yl)benzene,GWQOYRSARAWVTC-UHFFFAOYSA-N,CC(C)(C)OOC(C)(C)C1=CC=C(C=C1)C(C)(C)OOC(C)(C)C,025155-25-3,-6.927480976,CC(C)(C)OOC(C)(C)c1ccc(C(C)(C)OOC(C)(C)C)cc1
2137,B-6874,1-phenyl-N-(phenylmethyl)methanamine,BWLUMTFWVZZZND-UHFFFAOYSA-N,C1=CC=C(C=C1)CNCC2=CC=CC=C2,000103-49-1,-2.687626275,c1ccc(CNCc2ccccc2)cc1
2138,B-6875,diethyl 2-ethylpropanedioate,VQAZCUCWHIIFGE-UHFFFAOYSA-N,CCC(C(=O)OCC)C(=O)OCC,000133-13-1,-1.770408491,CCOC(=O)C(CC)C(=O)OCC
2139,B-6876,butyl 2-hydroxyacetate,VFGRALUHHHDIQI-UHFFFAOYSA-N,CCCCOC(=O)CO,007397-62-8,-0.458338912,CCCCOC(=O)CO
2140,B-6878,(5S)-5-pentyloxolan-2-one,OALYTRUKMRCXNH-QMMMGPOBSA-N,CCCCC[C@H]1CCC(=O)O1,000104-61-0,-1.855291816,CCCCCC1CCC(=O)O1
2141,B-6879,5-ethyloxolan-2-one,JBFHTYHTHYHCDJ-UHFFFAOYSA-N,CCC1CCC(=O)O1,000695-06-7,-0.170961602,CCC1CCC(=O)O1
2142,B-6880,Naphthalene-2-sulfonyl chloride,OPECTNGATDYLSS-UHFFFAOYSA-N,C1=CC=C2C=C(C=CC2=C1)S(=O)(=O)Cl,000093-11-8,-2.742835694,O=S(=O)(Cl)c1ccc2ccccc2c1
2143,B-6881,1-(4-Methoxyphenyl)ethanone,NTPLXRHDUXRPNE-UHFFFAOYSA-N,CC(=O)C1=CC=C(C=C1)OC,000100-06-1,-1.936803028,COc1ccc(C(C)=O)cc1
2144,B-6882,2-(4-methylphenyl)benzonitrile,ZGQVZLSNEBEHFN-UHFFFAOYSA-N,CC1=CC=C(C=C1)C2=CC=CC=C2C#N,114772-53-1,-4.43483868,Cc1ccc(-c2ccccc2C#N)cc1
2145,B-6883,methyl 2-oxo-2-phenylacetate,YLHXLHGIAMFFBU-UHFFFAOYSA-N,COC(=O)C(=O)C1=CC=CC=C1,015206-55-0,-1.914238406,COC(=O)C(=O)c1ccccc1
2146,B-6884,[4-(4-ethylphenyl)-2-fluorophenyl]boronic acid,XNSDNLHVCQYSOC-UHFFFAOYSA-N,B(C1=C(C=C(C=C1)C2=CC=C(C=C2)CC)F)(O)O,900796-46-5,-4.008756429,CCc1ccc(-c2ccc(B(O)O)c(F)c2)cc1
2147,B-6885,1.4-dichloro-2-(1.1.2.3.3.3-hexafluoropropoxy)-5-nitrobenzene,WDTRKHSHZIJORU-UHFFFAOYSA-N,C1=C(C(=CC(=C1Cl)OC(C(C(F)(F)F)F)(F)F)Cl)[N+](=O)[O-],130841-23-5,-4.805724113,O=[N+]([O-])c1cc(Cl)c(OC(F)(F)C(F)C(F)(F)F)cc1Cl
2148,B-6886,1.2-dimethoxy-4-[(E)-prop-1-enyl]benzene,NNWHUJCUHAELCL-SNAWJCMRSA-N,C/C=C/C1=CC(=C(C=C1)OC)OC,006379-72-2,-2.778225332,CC=Cc1ccc(OC)c(OC)c1
2149,B-6887,2-(phenoxy)ethyl 2-methylprop-2-enoate,CEXQWAAGPPNOQF-UHFFFAOYSA-N,CC(=C)C(=O)OCCOC1=CC=CC=C1,010595-06-9,-2.952646749,C=C(C)C(=O)OCCOc1ccccc1
2150,B-6888,2-Phenylethyl propanoate,HVGZQCSMLUDISR-UHFFFAOYSA-N,CCC(=O)OCCC1=CC=CC=C1,000122-70-3,-3.117442873,CCC(=O)OCCc1ccccc1
2151,B-6889,phenyl pent-4-enoate,IDAIRHGYBSBTJO-UHFFFAOYSA-N,C=CCCC(=O)OC1=CC=CC=C1,051231-09-5,-2.71584219,C=CCCC(=O)Oc1ccccc1
2152,B-6890,2-chloro-3-(2.2.2-trifluoroethoxy)pyridine,IUTMJBMTEOTFKB-UHFFFAOYSA-N,C1=CC(=C(N=C1)Cl)OCC(F)(F)F,256473-04-8,-2.149364469,FC(F)(F)COc1cccnc1Cl
2153,B-6891,1-Phenylethenyl acetate,HWCUCNKPBMGSSC-UHFFFAOYSA-N,CC(=O)OC(=C)C1=CC=CC=C1,002206-94-2,-2.113594852,C=C(OC(C)=O)c1ccccc1
2154,B-6892,2-(phenoxy)ethyl prop-2-enoate,RZVINYQDSSQUKO-UHFFFAOYSA-N,C=CC(=O)OCCOC1=CC=CC=C1,048145-04-6,-2.563625713,C=CC(=O)OCCOc1ccccc1
2155,B-6893,N-Methyl-N-phenylformamide,JIKUXBYRTXDNIY-UHFFFAOYSA-N,CN(C=O)C1=CC=CC=C1,000093-61-8,-1.494778376,CN(C=O)c1ccccc1
2156,B-6894,(2.2-dimethyl-3-oxopropyl) acetate,GXYDISAHHSQZRO-UHFFFAOYSA-N,CC(=O)OCC(C)(C)C=O,016184-79-5,-0.386553192,CC(=O)OCC(C)(C)C=O
2157,B-6895,(4-butoxy-2.3-difluorophenyl)boronic acid,NVIGFYPVKZNNAZ-UHFFFAOYSA-N,B(C1=C(C(=C(C=C1)OCCCC)F)F)(O)O,156487-12-6,-3.714378286,CCCCOc1ccc(B(O)O)c(F)c1F
2158,B-6896,3-(4-propan-2-ylphenyl)propanal,RLEFOSDUWZYGOS-UHFFFAOYSA-N,CC(C)C1=CC=C(C=C1)CCC=O,007775-00-0,-3.302653829,CC(C)c1ccc(CCC=O)cc1
2159,B-6898,5-(diethoxymethyl)-1.3-benzodioxole,YDQLGNDCYHZHEE-UHFFFAOYSA-N,CCOC(C1=CC2=C(C=C1)OCO2)OCC,040527-42-2,-1.626468202,CCOC(OCC)c1ccc2c(c1)OCO2
2160,B-6899,2-naphthalen-2-yloxyethanol,BQPBZDSDFCDSAO-UHFFFAOYSA-N,C1=CC=C2C=C(C=CC2=C1)OCCO,000093-20-9,-2.714293767,OCCOc1ccc2ccccc2c1
2161,B-6900,2-Ethylhexyl 4-nitrobenzoate,NPSJHQMIVNJLNN-UHFFFAOYSA-N,CCCCC(CC)COC(=O)C1=CC=C(C=C1)[N+](=O)[O-],016397-70-9,-5.29999763,CCCCC(CC)COC(=O)c1ccc([N+](=O)[O-])cc1
2162,B-6901,6-pentyloxan-2-one,GHBSPIPJMLAMEP-UHFFFAOYSA-N,CCCCCC1CCCC(=O)O1,000705-86-2,-1.647656238,CCCCCC1CCCC(=O)O1
2163,B-6902,propan-2-yl propan-2-yloxycarbonyloxy carbonate,BWJUFXUULUEGMA-UHFFFAOYSA-N,CC(C)OC(=O)OOC(=O)OC(C)C,000105-64-6,-3.829978291,CC(C)OC(=O)OOC(=O)OC(C)C
2164,B-6903,4-(2-ethylhexyl)-4-azatricyclo[5.2.1.02.6]dec-8-ene-3.5-dione,WLLGXSLBOPFWQV-UHFFFAOYSA-N,CCCCC(CC)CN1C(=O)C2C3CC(C2C1=O)C=C3,000113-48-4,-4.263856907,CCCCC(CC)CN1C(=O)C2C3C=CC(C3)C2C1=O
2165,B-6904,N-(1.3-benzothiazol-2-ylsulfanyl)cyclohexanamine,DEQZTKGFXNUBJL-UHFFFAOYSA-N,C1CCC(CC1)NSC2=NC3=CC=CC=C3S2,000095-33-0,-5.917116072,c1ccc2sc(SNC3CCCCC3)nc2c1
2166,B-6905,2-(4-tert-butyl-2.6-dimethylphenyl)acetonitrile,ZUXNULGHCOXCFL-UHFFFAOYSA-N,CC1=CC(=CC(=C1CC#N)C)C(C)(C)C,084803-57-6,-4.701805358,Cc1cc(C(C)(C)C)cc(C)c1CC#N
2167,B-6906,2-(1.3-oxazolidin-3-yl)ethyl 2-methylprop-2-enoate,FGERRMPOTZKDOB-UHFFFAOYSA-N,CC(=C)C(=O)OCCN1CCOC1,046235-93-2,-0.577497427,C=C(C)C(=O)OCCN1CCOC1
2168,B-6907,5-hexyl-5-methyloxolan-2-one,ALWUKGXLBSQSMA-UHFFFAOYSA-N,CCCCCCC1(CCC(=O)O1)C,007011-83-8,-2.643258996,CCCCCCC1(C)CCC(=O)O1
2169,B-6908,dipropyl cyclohexane-1.2-dicarboxylate,AGEFUZCBLJQXIA-UHFFFAOYSA-N,CCCOC(=O)C1CCCCC1C(=O)OCCC,065646-25-5,-3.262690377,CCCOC(=O)C1CCCCC1C(=O)OCCC
2170,B-6909,2.3-DICHLOROBENZOIC ACID,QAOJBHRZQQDFHA-UHFFFAOYSA-N,C1=CC(=C(C(=C1)Cl)Cl)C(=O)O,000050-45-3,-2.331673828,O=C(O)c1cccc(Cl)c1Cl
2171,B-6910,(8R.9S.13S.14S)-13-ethyl-3-methoxy-4.6.7.8.9.11.12.14.15.16-decahydro-1H-cyclopenta[a]phenanthren-17-one,PQMRKLSVUBRLLQ-XSYGEPLQSA-N,CC[C@]12CC[C@H]3[C@H]([C@@H]1CCC2=O)CCC4=C3CC=C(C4)OC,006236-40-4,-5.363814401,CCC12CCC3C4=C(CCC3C1CCC2=O)CC(OC)=CC4
2172,B-6911,1-(9.9-dimethyldecylsulfanyl)propan-2-ol,XROXSXGRRMHJFJ-UHFFFAOYSA-N,CC(CSCCCCCCCCC(C)(C)C)O,067124-09-8,-4.730924353,CC(O)CSCCCCCCCCC(C)(C)C
2173,B-6912,4-chlorobenzene-1.3-diol,JQVAPEJNIZULEK-UHFFFAOYSA-N,C1=CC(=C(C=C1O)O)Cl,000095-88-5,-1.070568545,Oc1ccc(Cl)c(O)c1
2174,B-6913,hexanoyl hexanoate,PKHMTIRCAFTBDS-UHFFFAOYSA-N,CCCCCC(=O)OC(=O)CCCCC,002051-49-2,-4.296803016,CCCCCC(=O)OC(=O)CCCCC
2175,B-6914,3.9-bis(1-cyclohex-3-enyl)-2.4.8.10-tetraoxaspiro[5.5]undecane,WKTJXDHLMJKSGI-UHFFFAOYSA-N,C1CC(CC=C1)C2OCC3(CO2)COC(OC3)C4CCC=CC4,006600-31-3,-3.204700192,C1=CCC(C2OCC3(CO2)COC(C2CC=CCC2)OC3)CC1
2176,B-6915,(2R)-2.5.7.8-TETRAMETHYL-2-[(4R.8R)-4.8.12-TRIMETHYLTRIDECYL]CHROMAN-6-OL,GVJHHUAWPYXKBD-IEOSBIPESA-N,CC1=C(C2=C(CC[C@@](O2)(C)CCC[C@H](C)CCC[C@H](C)CCCC(C)C)C(=C1O)C)C,000059-02-9,-8.520244426,Cc1c(C)c2c(c(C)c1O)CCC(C)(CCCC(C)CCCC(C)CCCC(C)C)O2
2177,B-6916,N-Octylpyridin-4-amine,RHDWCSIBVZKRRU-UHFFFAOYSA-N,CCCCCCCCNC1=CC=NC=C1,064690-19-3,-4.20735283,CCCCCCCCNc1ccncc1