,C_ID,Name,InChIKey,SMILES,CAS,LogS,smiles_canon
1397,B-5967,3-(4.6-dimethoxypyrimidin-2-yl)-1-(methyl-methylsulfonylsulfamoyl)urea,CTTHWASMBLQOFR-UHFFFAOYSA-N,CN(S(=O)(=O)C)S(=O)(=O)NC(=O)NC1=NC(=CC(=N1)OC)OC,120923-37-7,-2.080319481,COc1cc(OC)nc(NC(=O)NS(=O)(=O)N(C)S(C)(=O)=O)n1
1398,B-5969,Pyroxsulam,GLBLPMUBLHYFCW-UHFFFAOYSA-N,COC1=CC(=NC2=NC(=NN12)NS(=O)(=O)C3=C(C=CN=C3OC)C(F)(F)F)OC,422556-08-9,-2.132689848,COc1cc(OC)n2nc(NS(=O)(=O)c3c(C(F)(F)F)ccnc3OC)nc2n1
1399,B-5971,[4-(2-ethoxyethylamino)phenyl]-(4-aminophenyl)-s,PBGTVGVCOJBUNK-UHFFFAOYSA-N,CCOCCNC1=CC=C(C=C1)S(=O)(=O)C1=CC=C(N)C=C1,101586-90-7,-3.5057,CCOCCNc1ccc(S(=O)(=O)c2ccc(N)cc2)cc1
1400,B-5972,Acetic acid. 2.2'.2''-[1.2.3-benzenetriyltris(ox,MVXYTRNPKSARHR-UHFFFAOYSA-N,C1=CC(=C(C(=C1)OCC(=O)O)OCC(=O)O)OCC(=O)O,049629-98-3,-1.3635,O=C(O)COc1cccc(OCC(=O)O)c1OCC(=O)O
1401,B-5977,D-Glucose. 2.3.4.6-tetraacetate,YOFGCSKEYMCZKK-XJFOESAGSA-N,CC(=O)OC[C@H]([C@H]([C@@H]([C@H](C=O)OC(=O)C)OC(=O)C)OC(=O)C)O,040437-08-9,-1.3544,CC(=O)OCC(O)C(OC(C)=O)C(OC(C)=O)C(C=O)OC(C)=O
1402,B-5978,1.2-Benzenedicarboxylic acid. 1.2-ethanediyl est,KJDIOINTBBPCAD-UHFFFAOYSA-N,C1=CC=C(C(=C1)C(=O)O)C(=O)OCCOC(=O)C2=CC=CC=C2C(=O)O,007517-39-7,-2.8275,O=C(O)c1ccccc1C(=O)OCCOC(=O)c1ccccc1C(=O)O
1403,B-5983,(2R.3S.4R.5R)-2.3.4.5.6-pentahydroxyhexanal,GZCGUPFRVQAUEE-SLPGGIOYSA-N,C([C@H]([C@H]([C@@H]([C@H](C=O)O)O)O)O)O,000050-99-7,0.785,O=CC(O)C(O)C(O)C(O)CO
1404,B-5984,Saflufenacil,GNHDVXLWBQYPJE-UHFFFAOYSA-N,CC(C)N(C)S(=O)(=O)NC(=O)C1=CC(=C(C=C1Cl)F)N2C(=O)C=C(N(C2=O)C)C(F)(F)F,372137-35-4,-2.377531737,CC(C)N(C)S(=O)(=O)NC(=O)c1cc(-n2c(=O)cc(C(F)(F)F)n(C)c2=O)c(F)cc1Cl
1405,B-5985,Fomesafen,BGZZWXTVIYUUEY-UHFFFAOYSA-N,CS(=O)(=O)NC(=O)C1=C(C=CC(=C1)OC2=C(C=C(C=C2)C(F)(F)F)Cl)[N+](=O)[O-],072178-02-0,-3.9433,CS(=O)(=O)NC(=O)c1cc(Oc2ccc(C(F)(F)F)cc2Cl)ccc1[N+](=O)[O-]
1406,B-5986,4-Hydroxypteridine,UWWUXWWWOUNMKW-UHFFFAOYSA-N,C1=CN=C2C(=NC=NC2=O)N1,000700-47-0,-1.4716,O=c1ncnc2[nH]ccnc1-2
1407,B-5992,Lumazine. 6.7-diethyl-,PNLRJGYHLCFMLM-UHFFFAOYSA-N,CCC1=C(CC)N=C2C(=O)NC(=O)N=C2N1,113222-29-0,-2.3843,CCc1nc2c(=O)[nH]c(=O)nc-2[nH]c1CC
1408,B-5998,[1-[3-[(4.6-dimethoxypyrimidin-2-yl)carbamoylsulfamoyl]pyridin-2-yl]-2-fluoropropyl] 2-methoxyacetate,FICWGWVVIRLNRB-HWPZZCPQSA-N,COCC(=O)O[C@@H]([C@@H](C)F)C1=C(C=CC=N1)S(=O)(=O)NC(=O)NC1=NC(OC)=CC(OC)=N1,412928-75-7,-3.631033153,COCC(=O)OC(c1ncccc1S(=O)(=O)NC(=O)Nc1nc(OC)cc(OC)n1)C(C)F
1409,B-5999,Sulfachlorpyridazine,XOXHILFPRYWFOD-UHFFFAOYSA-N,C1=CC(=CC=C1N)S(=O)(=O)NC2=NN=C(C=C2)Cl,000080-32-0,-1.6093,Nc1ccc(S(=O)(=O)Nc2ccc(Cl)nn2)cc1
1410,B-6003,Guanine,UYTPUPDQBNUYGX-UHFFFAOYSA-N,C1=NC2=C(N1)C(=O)N=C(N2)N,000073-40-5,-1.8613,Nc1nc(=O)c2[nH]cnc2[nH]1
1411,B-6007,4(1H)-Pteridinone. 6.7-diphenyl-,UMUYUDSQRKTBKA-UHFFFAOYSA-N,C1=CC=C(C=C1)C2=C(N=C3C(=NC=NC3=O)N2)C4=CC=CC=C4,024863-39-6,-3.1766,O=c1ncnc2[nH]c(-c3ccccc3)c(-c3ccccc3)nc1-2
1412,B-6008,.beta.-Alanine. N-(carboxymethyl)-,GAUBNQMYYJLWNF-UHFFFAOYSA-N,C(CNCC(=O)O)C(=O)O,000505-72-6,-0.7527,O=C(O)CCNCC(=O)O
1413,B-6010,Butane. 1.1'.1''-[methylidynetris(sulfonyl)]tris,BNLKXFUYFIBLHN-UHFFFAOYSA-N,CCCCS(=O)(=O)C(S(=O)(=O)CCCC)S(=O)(=O)CCCC,053893-44-0,-2.9738,CCCCS(=O)(=O)C(S(=O)(=O)CCCC)S(=O)(=O)CCCC
1414,B-6011,Benzenesulfonamide. 4-amino-N-(5-amino-1.3.4-thi,YTYLYXGJZFQBMU-UHFFFAOYSA-N,C1=CC(=CC=C1N)S(=O)(=O)NC2=NN=C(S2)N,071119-25-0,-2.8736,Nc1ccc(S(=O)(=O)Nc2nnc(N)s2)cc1
1415,B-6012,methyl 4-[(3-methoxy-4-methyl-5-oxo1.2.4-triazole-1-carbonyl)sulfamoyl]-5-methylthiophene-3-carboxylate,XSKZXGDFSCCXQX-UHFFFAOYSA-N,CC1=C(C(=CS1)C(=O)OC)S(=O)(=O)NC(=O)N2C(=O)N(C(=N2)OC)C,317815-83-1,-2.95202332,COC(=O)c1csc(C)c1S(=O)(=O)NC(=O)n1nc(OC)n(C)c1=O
1416,B-6016,(2S.5R.6R)-6-[[3-(2-chlorophenyl)-5-methyl1.2-oxazole-4-carbonyl]amino]-3.3-dimethyl-7-oxo-4-thia-1-azabicyclo[3.2.0]heptane-2-carboxylic acid,LQOLIRLGBULYKD-JKIFEVAISA-N,CC1=C(C(=O)N[C@H]2[C@H]3SC(C)(C)[C@@H](N3C2=O)C(O)=O)C(=NO1)C1=C(Cl)C=CC=C1,000061-72-3,-4.496353437,Cc1onc(-c2ccccc2Cl)c1C(=O)NC1C(=O)N2C1SC(C)(C)C2C(=O)O
1417,B-6021,Sulfanilamide. N1-(4-amino-2-pyrimidinyl)-,NZJLTOYOJWOIFZ-UHFFFAOYSA-N,NC1=CC=C(C=C1)S(=O)(=O)NC1=NC=CC(N)=N1,016806-00-1,-2.1542,Nc1ccc(S(=O)(=O)Nc2nccc(N)n2)cc1
1418,B-6023,Hydrazinecarboxamide. 2-[3-[5-nitro-2-furanyl)-2,HYPUCPMYDLRLLS-WYAOVLDQSA-N,C1=C(OC(=C1)[N+](=O)[O-])/C=C/C=N/NC(=O)N,000721-71-1,-3.1438,NC(=O)NN=CC=Cc1ccc([N+](=O)[O-])o1
1419,B-6024,Benzenesulfonamide. 4-amino-N-1H-imidazol-2-yl-,ZAUMCYWSLMNGTK-UHFFFAOYSA-N,C1=CC(=CC=C1N)S(=O)(=O)NC2=NC=CN2,017103-46-7,-2.1266,Nc1ccc(S(=O)(=O)Nc2ncc[nH]2)cc1
1420,B-6032,Benzenesulfonamide. 4-amino-N-(6-methyl-3-pyrida,NOGQYPLSDPCLAJ-UHFFFAOYSA-N,CC1=NN=C(C=C1)NS(=O)(=O)C2=CC=C(C=C2)N,005433-63-6,-2.6368,Cc1ccc(NS(=O)(=O)c2ccc(N)cc2)nn1
1421,B-6038,2-[(4-methoxy-6-methyl-1.3.5-triazin-2-yl)carbamoylsulfamoyl]benzoic acid,UWHURBUBIHUHSU-UHFFFAOYSA-N,CC1=NC(=NC(=N1)OC)NC(=O)NS(=O)(=O)C2=CC=CC=C2C(=O)O,079510-48-8,-3.329534573,COc1nc(C)nc(NC(=O)NS(=O)(=O)c2ccccc2C(=O)O)n1
1422,B-6039,INDAPAMIDE,NDDAHWYSQHTHNT-SNVBAGLBSA-N,C[C@@H]1CC2C(N1NC(=O)C1CCC(C(C1)S(=O)(=O)N)Cl)CCCC2,026807-65-8,-3.79,CC1CC2CCCCC2N1NC(=O)C1CCC(Cl)C(S(N)(=O)=O)C1
1423,B-6040,Phthalic acid. 3-sulfamoyl-,ULTODHINOGWADN-UHFFFAOYSA-N,NS(=O)(=O)C1=C(C(O)=O)C(=CC=C1)C(O)=O,094617-43-3,-1.871,NS(=O)(=O)c1cccc(C(=O)O)c1C(=O)O
1424,B-6042,PHLORETIN,VGEREEWJJVICBM-UHFFFAOYSA-N,C1=CC(=CC=C1CCC(=O)C2=C(C=C(C=C2O)O)O)O,000060-82-2,-3.3483,O=C(CCc1ccc(O)cc1)c1c(O)cc(O)cc1O
1425,B-6050,Acetamide. N-[4-[[(6-chloro-3-pyridazinyl)amino],DQGCGYHKEFSCGC-UHFFFAOYSA-N,CC(=O)NC1=CC=C(C=C1)S(=O)(=O)NC2=NN=C(C=C2)Cl,004489-33-2,-1.9579,CC(=O)Nc1ccc(S(=O)(=O)Nc2ccc(Cl)nn2)cc1
1426,B-6053,Urea. (2.3-dihydro-1.5-dimethyl-3-oxo-2-phenyl-1,NIXHNSPZZPUXPV-UHFFFAOYSA-N,CN1N(C(=O)C(NC(N)=O)=C1C)C1=CC=CC=C1,002620-71-5,-1.5222,Cc1c(NC(N)=O)c(=O)n(-c2ccccc2)n1C
1427,B-6055,1H-Imidazole-4.5-dicarboxylic acid. 2-(1-methyle,YCSKGHLYJDXIQO-UHFFFAOYSA-N,CC(C)C1=NC(=C(N1)C(=O)O)C(=O)O,051294-23-6,-1.7919,CC(C)c1nc(C(=O)O)c(C(=O)O)[nH]1
1428,B-6056,3.5-Pyridinedicarboxylic acid. 2.6-dimethyl-. di,SDFQZXJRHYVPLF-UHFFFAOYSA-N,CC1=C(C=C(C(=N1)C)C(=O)NN)C(=O)NN,015420-54-9,-0.3945,Cc1nc(C)c(C(=O)NN)cc1C(=O)NN
1429,B-6059,Benzenesulfonamide. 5-amino-2-[(4-aminophenyl)su,JDZPLYBLBIKFHJ-UHFFFAOYSA-N,C1=CC(=CC=C1N)S(=O)(=O)C2=C(C=C(C=C2)N)S(=O)(=O)N,017615-73-5,-3.498,Nc1ccc(S(=O)(=O)c2ccc(N)cc2S(N)(=O)=O)cc1
1430,B-6060,2H-Pyran-2.6-dicarboxylic acid. 3.4-dihydro-3.4-,AMVOMZPEOOFBGQ-UHFFFAOYSA-N,OC(=O)C1OC(=CC(=O)C1=O)C(O)=O,000497-58-5,-1.377,O=C(O)C1=CC(=O)C(=O)C(C(=O)O)O1
1431,B-6065,Guanidine. N-butyl-N'-sulfanilyl-,AFMZPRLSDKCBRL-UHFFFAOYSA-N,CCCCNC(=N)NS(=O)(=O)C1=CC=C(N)C=C1,092059-15-9,-2.9848,CCCCNC(=N)NS(=O)(=O)c1ccc(N)cc1
1432,B-6073,2-PROPENOIC ACID. 2-METHYL-. (1-METHYLETHYLIDENE,AMFGWXWBFGVCKG-UHFFFAOYSA-N,CC(=C)C(=O)OCC(COC1=CC=C(C=C1)C(C)(C)C2=CC=C(C=C2)OCC(COC(=O)C(=C)C)O)O,001565-94-2,-5.2327,C=C(C)C(=O)OCC(O)COc1ccc(C(C)(C)c2ccc(OCC(O)COC(=O)C(=C)C)cc2)cc1
1433,B-6079,D-Glucose. 1-(carbamoylimino)-1-deoxy-,FIICNUDAUOUCMD-SLPGGIOYSA-N,C([C@H]([C@H]([C@@H]([C@H](C=NC(=O)N)O)O)O)O)O,118923-30-1,0.1973,NC(=O)N=CC(O)C(O)C(O)C(O)CO
1434,B-6080,Benzenesulfonamide. 4-amino-N-(1-methyl-2(1H)-py,XRDQUAMJQIQQTK-OWBHPGMISA-N,CN\1C=CC=C/C1=N/S(=O)(=O)C2=CC=C(C=C2)N,058944-05-1,-2.3713,Cn1ccccc1=NS(=O)(=O)c1ccc(N)cc1
1435,B-6081,2-(2.2-difluoroethoxy)-N-(5.8-dimethoxy-[1.2.4]triazolo[5.1-f]pyrimidin-2-yl)-6-(trifluoromethyl)benzenesulfonamide,SYJGKVOENHZYMQ-UHFFFAOYSA-N,COC1=CN=C(N2C1=NC(=N2)NS(=O)(=O)C3=C(C=CC=C3OCC(F)F)C(F)(F)F)OC,219714-96-2,-3.073618721,COc1cnc(OC)n2nc(NS(=O)(=O)c3c(OCC(F)F)cccc3C(F)(F)F)nc12
1436,B-6083,Thiourea. N.N''-methylenebis-,FYRGTSQBIJSGKL-UHFFFAOYSA-N,C(NC(=S)N)NC(=S)N,020939-13-3,-1.6714,NC(=S)NCNC(N)=S
1437,B-6085,2-[5-acetamido-N-(2-acetyloxyethyl)-4-[(2-bromo-4.6-dinitrophenyl)diazenyl]-2-ethoxyanilino]ethyl acetate,VQIRFOAILLIZOY-UHFFFAOYSA-N,CCOC1=C(C=C(C(=C1)N=NC2=C(C=C(C=C2Br)[N+](=O)[O-])[N+](=O)[O-])NC(=O)C)N(CCOC(=O)C)CCOC(=O)C,012239-34-8,-8.833600231,CCOc1cc(N=Nc2c(Br)cc([N+](=O)[O-])cc2[N+](=O)[O-])c(NC(C)=O)cc1N(CCOC(C)=O)CCOC(C)=O
1438,B-6086,2-NAPHTHYLAMINE-6.8-DISULFONIC ACID,CMOLPZZVECHXKN-UHFFFAOYSA-N,C1=CC(=CC2=C(C=C(C=C21)S(=O)(=O)O)S(=O)(=O)O)N,000086-65-7,-0.5176,Nc1ccc2cc(S(=O)(=O)O)cc(S(=O)(=O)O)c2c1
1439,B-6088,BENZENESULFONAMIDE. 4-[(2-HYDROXYETHYL)SULFONYL],UPDXBCKJUQPWOW-UHFFFAOYSA-N,C1=CC(=CC=C1S(=O)(=O)CCO)S(=O)(=O)N,108966-49-0,-1.604,NS(=O)(=O)c1ccc(S(=O)(=O)CCO)cc1
1440,B-6090,AVITRIPTAN,WRZVGHXUPBWIOO-UHFFFAOYSA-N,CNS(=O)(=O)CC1=CC2=C(C=C1)NC=C2CCCN3CCN(CC3)C4=NC=NC=C4OC,151140-96-4,-3.76,CNS(=O)(=O)Cc1ccc2[nH]cc(CCCN3CCN(c4ncncc4OC)CC3)c2c1
1441,B-6094,Benzenesulfonamide. 4-amino-N-(2.3-dihydro-1.5-d,QLVNBMGCYQQDDV-UHFFFAOYSA-N,CC1=C(C(=O)N(N1C)C2=CC=CC=C2)NS(=O)(=O)C3=CC=C(C=C3)N,071119-16-9,-0.3613,Cc1c(NS(=O)(=O)c2ccc(N)cc2)c(=O)n(-c2ccccc2)n1C
1442,B-6097,1.3-Benzenesulfonic acid. 2.5-diamino,QGNJPFLIBOTDKU-UHFFFAOYSA-N,C1=C(C=C(C(=C1S(=O)(=O)O)N)S(=O)(=O)O)N,006409-48-9,-0.0687,Nc1cc(S(=O)(=O)O)c(N)c(S(=O)(=O)O)c1
1443,B-6103,Benzenesulfonamide. 4-amino-N-(1.2.3.4-tetrahydr,RWOCWQSGDIXIMK-UHFFFAOYSA-N,NC1=CC=C(C=C1)S(=O)(=O)NC1=CNC(=O)NC1=O,006912-98-7,-2.764,Nc1ccc(S(=O)(=O)Nc2c[nH]c(=O)[nH]c2=O)cc1
1444,B-6106,Melilotoside,GVRIYIMNJGULCZ-ZMKUSUEASA-N,C1=CC=C(C(=C1)/C=C/C(=O)O)O[C@H]2[C@@H]([C@H]([C@@H]([C@H](O2)CO)O)O)O,000618-67-7,-1.5136,O=C(O)C=Cc1ccccc1OC1OC(CO)C(O)C(O)C1O
1445,B-6107,2.2-dichloro-N-[(1R.2S)-3-fluoro-1-hydroxy-1-(4-methylsulfonylphenyl)propan-2-yl]acetamide,AYIRNRDRBQJXIF-NXEZZACHSA-N,CS(=O)(=O)C1=CC=C(C=C1)[C@@H](O)[C@@H](CF)NC(=O)C(Cl)Cl,073231-34-2,-2.433565351,CS(=O)(=O)c1ccc(C(O)C(CF)NC(=O)C(Cl)Cl)cc1
1446,B-6108,2-[2-(1-chlorocyclopropyl)-3-(2-chlorophenyl)-2-hydroxypropyl]-1H-1.2.4-triazole-3-thione,MNHVNIJQQRJYDH-UHFFFAOYSA-N,C1CC1(C(CC2=CC=CC=C2Cl)(CN3C(=S)N=CN3)O)Cl,178928-70-6,-3.059762787,OC(Cc1ccccc1Cl)(Cn1[nH]cnc1=S)C1(Cl)CC1
1447,B-6111,phthalylsulfathiazole,PBMSWVPMRUJMPE-UHFFFAOYSA-N,C1=CC=C(C(=C1)C(=O)NC2=CC=C(C=C2)S(=O)(=O)NC3=NC=CS3)C(=O)O,000085-73-4,-2.8349,O=C(O)c1ccccc1C(=O)Nc1ccc(S(=O)(=O)Nc2nccs2)cc1
1448,B-6113,Betaine,KWIUHFFTVRNATP-UHFFFAOYSA-N,C[N+](C)(C)CC(=O)[O-],000107-43-7,0.7173,C[N+](C)(C)CC(=O)[O-]
1449,B-6114,Benzenesulfonamide. 3-amino-4-[(4-aminophenyl)su,QQQXNNBUXWCLAZ-UHFFFAOYSA-N,C1=CC(=CC=C1N)S(=O)(=O)C2=C(C=C(C=C2)S(=O)(=O)N)N,113597-77-6,-3.4857,Nc1ccc(S(=O)(=O)c2ccc(S(N)(=O)=O)cc2N)cc1
1450,B-6115,4.6-BIS(ISOPROPYLAMINO)-S-TRIAZIN-2-OL,RUOTUMSRCIMLJK-UHFFFAOYSA-N,CC(C)NC1=NC(=O)N=C(N1)NC(C)C,007374-53-0,-3.3124,CC(C)Nc1nc(=O)nc(NC(C)C)[nH]1
1451,B-6119,4-(tert-butylamino)-6-ethylamino-5H-1.3.5-triazin-2-one,OYTCZOJKXCTBHG-UHFFFAOYSA-N,CCNC1=NC(=O)N=C(N1)NC(C)(C)C,066753-07-9,-4.46810113,CCNc1nc(=O)nc(NC(C)(C)C)[nH]1
1452,B-6121,Topramezone,BPPVUXSMLBXYGG-UHFFFAOYSA-N,CC1=C(C=CC(=C1C2=NOCC2)S(=O)(=O)C)C(=O)C3=CNN(C3=O)C,210631-68-8,-0.560384923,Cc1c(C(=O)c2c[nH]n(C)c2=O)ccc(S(C)(=O)=O)c1C1=NOCC1
1453,B-6125,Benzenesulfonamide. 4-[(4-aminophenyl)sulfonyl]-,RRDMNICSOKCFDI-UHFFFAOYSA-N,C1=CC(=CC=C1N)S(=O)(=O)C2=C(C=C(C=C2)S(=O)(=O)N)[N+](=O)[O-],113597-78-7,-4.0618,Nc1ccc(S(=O)(=O)c2ccc(S(N)(=O)=O)cc2[N+](=O)[O-])cc1
1454,B-6126,Benzenesulfonamide. o-(3.4-dihydro-4-oxo-2-quina,OSBLXHNHXUZTPI-UHFFFAOYSA-N,NS(=O)(=O)C1=C(C=CC=C1)C1=NC(=O)C2=CC=CC=C2N1,106038-70-4,-3.0794,NS(=O)(=O)c1ccccc1-c1nc(=O)c2ccccc2[nH]1
1455,B-6129,Hydroxysimazine,YQIXRXMOJFQVBV-UHFFFAOYSA-N,CCNC1=NC(=O)N=C(N1)NCC,002599-11-3,-3.7471,CCNc1nc(=O)nc(NCC)[nH]1
1456,B-6130,1.2.3-Propanetricarboxamide. 2-hydroxy-,MPQPXMRGNQJXGO-UHFFFAOYSA-N,C(C(=O)N)C(CC(=O)N)(C(=O)N)O,000597-59-1,-0.8455,NC(=O)CC(O)(CC(N)=O)C(N)=O
1457,B-6133,D-Cysteine. L-leucyl-. (2.fwdarw.2')-disulfide,GBNFPCVLMYXNBD-UHFFFAOYSA-N,CC(C)(C)C(N)C(=O)NC(CSSCC(NC(=O)C(N)C(C)(C)C)C(O)=O)C(O)=O,038062-65-6,-0.5136,CC(C)(C)C(N)C(=O)NC(CSSCC(NC(=O)C(N)C(C)(C)C)C(=O)O)C(=O)O
1458,B-6136,(2R)-2-[(2R.3S.5S.6R)-6-[(2S.3S.4S.6R)-6-[(2S.5S.7R.9S.10S.12R.15R)-2-[(2R.5R.6S)-5-ethyl-5-hydroxy-6-methyloxan-2-yl]-15-hydroxy-2.10.12-trimethyl-1.6.8-trioxadispiro[4.1.5^{7}.3^{5}]pentadec-13-en-9-yl]-3-hydroxy-4-methyl-5-oxooctan-2-yl]-3.5-dimethyloxan-2-yl]butanoic acid,VHKXXVVRRDYCIK-CWCPJSEDSA-N,CC[C@H]([C@@H]1O[C@@H]([C@@H](C)[C@H](O)[C@H](C)C(=O)[C@H](CC)[C@H]2O[C@@]3(O[C@@]4(CC[C@](C)(O4)[C@H]4CC[C@](O)(CC)[C@H](C)O4)[C@H](O)C=C3)[C@H](C)C[C@@H]2C)[C@@H](C)C[C@@H]1C)C(O)=O,055134-13-9,-3.875081246,CCC(C(=O)O)C1OC(C(C)C(O)C(C)C(=O)C(CC)C2OC3(C=CC(O)C4(CCC(C)(C5CCC(O)(CC)C(C)O5)O4)O3)C(C)CC2C)C(C)CC1C
1459,B-6138,ACETAMIDE. N-[6.9-DIHYDRO-9-[(2-HYDROXYETHOXY)ME,DJMINGJGFGSDDB-UHFFFAOYSA-N,CC(=O)NC1=NC(=O)C2=C(N1)N(C=N2)COCCO,110104-37-5,-1.9223,CC(=O)Nc1nc(=O)c2ncn(COCCO)c2[nH]1
1460,B-6141,methyl 2-[(4.6-dimethoxypyrimidin-2-yl)carbamoylsulfamoyl]-4-(methanesulfonamidomethyl)benzoate,NIFKBBMCXCMCAO-UHFFFAOYSA-N,COC1=CC(=NC(=N1)NC(=O)NS(=O)(=O)C2=C(C=CC(=C2)CNS(=O)(=O)C)C(=O)OC)OC,208465-21-8,-3.018053207,COC(=O)c1ccc(CNS(C)(=O)=O)cc1S(=O)(=O)NC(=O)Nc1nc(OC)cc(OC)n1
1461,B-6143,2-[(4.6-dimethoxypyrimidin-2-yl)carbamoylsulfamoyl]-3-formamido-N.N-dimethylbenzamide,HICJAEZEEBOKGV-UHFFFAOYSA-N,CN(C)C(=O)C1=C(C(=CC=C1)NC=O)S(=O)(=O)NC(=O)NC2=NC(=CC(=N2)OC)OC,173159-57-4,-2.137970223,COc1cc(OC)nc(NC(=O)NS(=O)(=O)c2c(NC=O)cccc2C(=O)N(C)C)n1
1462,B-6144,Benzenesulfonamide. N.N'-2.5-pyrimidinediylbis[4,PINJACNNAKITKR-UHFFFAOYSA-N,NC1=CC=C(C=C1)S(=O)(=O)NC1=CN=C(NS(=O)(=O)C2=CC=C(N)C=C2)N=C1,071119-39-6,-3.8913,Nc1ccc(S(=O)(=O)Nc2cnc(NS(=O)(=O)c3ccc(N)cc3)nc2)cc1
1463,B-6145,1.3-Naphthalenedisulfonic acid. 7-hydroxy-8-(1-n,HOQKGCIZHZIZQS-UHFFFAOYSA-N,OC1=C(\N=N\C2=C3C=CC=CC3=CC=C2)C2=C(C=C(C=C2C=C1)S(O)(=O)=O)S(O)(=O)=O,022915-90-8,-0.3399,O=S(=O)(O)c1cc(S(=O)(=O)O)c2c(N=Nc3cccc4ccccc34)c(O)ccc2c1
1464,B-6149,1.3.5-Triazin-2(1H)-one. 4.6-diamino-,MASBWURJQFFLOO-UHFFFAOYSA-N,C1(=NC(=O)N=C(N1)N)N,000645-92-1,-3.2291,Nc1nc(=O)nc(N)[nH]1
1465,B-6150,Glucopyranose. 2-(N4-acetylsulfanilamido)-2-deox,ZPBQWDUYRAETEB-UHFFFAOYSA-N,CC(=O)NC1=CC=C(C=C1)S(=O)(=O)NC1C(O)OC(CO)C(O)C1O,004181-03-7,-1.0985,CC(=O)Nc1ccc(S(=O)(=O)NC2C(O)OC(CO)C(O)C2O)cc1
1466,B-6163,1-aminopropylphosphonic acid,DELJNDWGTWHHFA-UHFFFAOYSA-N,CCC(N)P(=O)(O)O,016606-64-7,-0.000281107,CCC(N)P(=O)(O)O
1467,B-6165,(3R.4S.5S.6R)-2-[(2R.3R.4S.5R)-3.5-dihydroxy-2-(hydroxymethyl)-6-[(3R.4S.5R.6R)-2.3.5-trihydroxy-6-(hydroxymethyl)oxan-4-yl]oxyoxan-4-yl]oxy-6-(hydroxymethyl)oxane-3.4.5-triol,DBTMGCOVALSLOR-VPNXCSTESA-N,OC[C@H]1OC(O[C@H]2[C@H](O)[C@@H](CO)OC(O[C@@H]3[C@@H](O)C(O)O[C@H](CO)[C@H]3O)[C@@H]2O)[C@H](O)[C@@H](O)[C@@H]1O,009008-22-4,-0.223523234,OCC1OC(OC2C(O)C(CO)OC(OC3C(O)C(O)OC(CO)C3O)C2O)C(O)C(O)C1O
1468,B-6167,(2S.3S.6R)-3-[[3-amino-5-(carbamimidoyl-methylamino)pentanoyl]amino]-6-(4-amino-2-oxopyrimidin-1-yl)-3.6-dihydro-2H-pyran-2-carboxylic acid,CXNPLSGKWMLZPZ-LBLJTAPMSA-N,CN(CC[C@H](N)CC(=O)N[C@@H]1C=C[C@H](O[C@H]1C(O)=O)N1C=CC(N)=NC1=O)C(N)=N,002079-00-7,-4.148646863,CN(CCC(N)CC(=O)NC1C=CC(n2ccc(N)nc2=O)OC1C(=O)O)C(=N)N
1469,B-6168,2-[(4R.5S.6S.7R.9R.11E.13E.15R.16R)-6-[(2R.3R.4R.5S.6R)-5-[(2S.4R.5S.6S)-4.5-dihydroxy-4.6-dimethyloxan-2-yl]oxy-4-dimethylamino-3-hydroxy-6-methyloxan-2-yl]oxy-16-ethyl-4-hydroxy-15-[[(2R.3R.4R.5R.6R)-5-hydroxy-3.4-dimethoxy-6-methyloxan-2-yl]oxymethyl]-5.9.13-trimethyl-2.10-dioxo-1-oxacyclohexadeca-11.13-dien-7-yl]acetaldehyde,WBPYTXDJUQJLPQ-VMXQISHHSA-N,CC[C@H]1OC(=O)C[C@@H](O)[C@H](C)[C@@H](O[C@@H]2O[C@H](C)[C@@H](O[C@H]3C[C@@](C)(O)[C@@H](O)[C@H](C)O3)[C@@H]([C@H]2O)N(C)C)[C@@H](CC=O)C[C@@H](C)C(=O)C=CC(C)=C[C@@H]1CO[C@H]1O[C@H](C)[C@@H](O)[C@@H](OC)[C@H]1OC,001401-69-0,-2.262977999,CCC1OC(=O)CC(O)C(C)C(OC2OC(C)C(OC3CC(C)(O)C(O)C(C)O3)C(N(C)C)C2O)C(CC=O)CC(C)C(=O)C=CC(C)=CC1COC1OC(C)C(O)C(OC)C1OC
1470,B-6170,2-[(1S.2R.3R.4S.5R.6R)-5-(diaminomethylideneamino)-2-[(2R.3R.4R.5S)-3-[(2S.3S.4S.5R.6S)-4.5-dihydroxy-6-(hydroxymethyl)-3-methylaminooxan-2-yl]oxy-4-formyl-4-hydroxy-5-methyloxolan-2-yl]oxy-3.4.6-trihydroxycyclohexyl]guanidine,UCSJYZPVAKXKNQ-HZYVHMACSA-N,CN[C@@H]1[C@@H](O)[C@H](O)[C@@H](CO)O[C@@H]1O[C@@H]1[C@@H](O[C@H]2[C@H](O)[C@@H](O)[C@H](NC(N)=N)[C@@H](O)[C@@H]2NC(N)=N)O[C@H](C)[C@@]1(O)C=O,000057-92-1,0.235391433,CNC1C(OC2C(OC3C(O)C(O)C(NC(=N)N)C(O)C3NC(=N)N)OC(C)C2(O)C=O)OC(CO)C(O)C1O
1471,B-6172,Benzoic acid. 5-bromo-2-chloro-,FGERXQWKKIVFQG-UHFFFAOYSA-N,C1=CC(=C(C=C1Br)C(=O)O)Cl,021739-92-4,-1.952,O=C(O)c1cc(Br)ccc1Cl
1472,B-6174,1.3.5-trimethyl-2-phosphobenzene,RSJWYBQLWDYONY-UHFFFAOYSA-N,CC1=CC(=C(C(=C1)C)P(=O)=O)C,006781-97-1,-2.78482399,Cc1cc(C)c(P(=O)=O)c(C)c1
1473,B-6176,6-methoxy-2-oxo-1H-quinoline-4-carboxylic acid,ATQXNYQCZFMIKY-UHFFFAOYSA-N,COC1=CC2=C(C=C1)NC(=O)C=C2C(=O)O,032431-29-1,-3.1104,COc1ccc2[nH]c(=O)cc(C(=O)O)c2c1
1474,B-6177,2-chloro-4-methylsulfonylbenzoic acid,CTTWSFIIFMWHLQ-UHFFFAOYSA-N,CS(=O)(=O)C1=CC(=C(C=C1)C(=O)O)Cl,053250-83-2,-0.592287816,CS(=O)(=O)c1ccc(C(=O)O)c(Cl)c1
1475,B-6178,3-(phenoxy)benzoate,NXTDJHZGHOFSQG-UHFFFAOYSA-N,C1=CC=C(C=C1)OC2=CC=CC(=C2)C(=O)O,003739-38-6,-4.10297331,O=C(O)c1cccc(Oc2ccccc2)c1
1476,B-6180,Selamectin,AFJYYKSVHJGXSN-XHKIUTQPSA-N,CO[C@@H]1C[C@H](O[C@H]2[C@@H](C)C=CC=C3CO[C@@H]4\C(=N/O)C(C)=C[C@@H](C(=O)O[C@H]5C[C@H](CC=C2C)O[C@@]2(CC[C@H](C)[C@H](O2)C2CCCCC2)C5)[C@@]34O)O[C@@H](C)[C@@H]1O,165108-07-6,-6.247984999,COC1CC(OC2C(C)=CCC3CC(CC4(CCC(C)C(C5CCCCC5)O4)O3)OC(=O)C3C=C(C)C(=NO)C4OCC(=CC=CC2C)C34O)OC(C)C1O
1477,B-6181,1.2-Dichloro-1.1.2-trifluoro-2-(trifluoromethoxy)ethane,PIHHZNWHYDIJIP-UHFFFAOYSA-N,C(C(F)(F)Cl)(OC(F)(F)F)(F)Cl,002356-53-8,-3.28119617,FC(F)(F)OC(F)(Cl)C(F)(F)Cl
1478,B-6182,propan-2-ylcyclohexane,GWESVXSMPKAFAS-UHFFFAOYSA-N,CC(C)C1CCCCC1,000696-29-7,-5.311620402,CC(C)C1CCCCC1
1479,B-6184,CYCLODODECANE,DDTBPAQBQHZRDW-UHFFFAOYSA-N,C1CCCCCCCCCCC1,000294-62-2,-7.022019868,C1CCCCCCCCCCC1
1480,B-6185,1.1.1-TRICHLORO-2.2.2-TRIFLUOROETHANE,BOSAWIQFTJIYIS-UHFFFAOYSA-N,C(C(Cl)(Cl)Cl)(F)(F)F,000354-58-5,-4.333195175,FC(F)(F)C(Cl)(Cl)Cl
1481,B-6186,trifluoro-iodomethane,VPAYJEUHKVESSD-UHFFFAOYSA-N,C(F)(F)(F)I,002314-97-8,-2.07247363,FC(F)(F)I
1482,B-6187,1.1.2.2.3.3.4.5.5.6-Decafluoro-4.6-bis(trifluoromethyl)cyclohexane,LOQGSOTUHASIHI-UHFFFAOYSA-N,C1(C(C(C(C(C1(F)F)(F)F)(F)F)(C(F)(F)F)F)(F)F)(C(F)(F)F)F,000335-27-3,-7.602127736,FC(F)(F)C1(F)C(F)(F)C(F)(F)C(F)(F)C(F)(C(F)(F)F)C1(F)F
1483,B-6188,2.2.4.4-tetramethyldecane,ARMZMLKGTHUCBR-UHFFFAOYSA-N,CCCCCCC(C)(C)CC(C)(C)C,110964-79-9,-1.66103407,CCCCCCC(C)(C)CC(C)(C)C
1484,B-6189,1.1.2.2.3.3.4.4.5-nonafluoro-5-(trifluoromethyl)cyclopentane,BCNXQFASJTYKDJ-UHFFFAOYSA-N,C1(C(C(C(C1(F)F)(F)F)(F)F)(F)F)(C(F)(F)F)F,001805-22-7,-7.477188999,FC(F)(F)C1(F)C(F)(F)C(F)(F)C(F)(F)C1(F)F
1485,B-6190,2.6.10-TRIMETHYLDODECANE,YFHFHLSMISYUAQ-UHFFFAOYSA-N,CCC(C)CCCC(C)CCCC(C)C,003891-98-3,-8.929250898,CCC(C)CCCC(C)CCCC(C)C
1486,B-6191,Bicyclo[2.2.1]hept-2-ene,JFNLZVQOOSMTJK-UHFFFAOYSA-N,C1CC2CC1C=C2,000498-66-8,-2.847716593,C1=CC2CCC1C2
1487,B-6192,2.4.4-Trimethylpent-1-ene,FXNDIJDIPNCZQJ-UHFFFAOYSA-N,CC(=C)CC(C)(C)C,025167-70-8,-4.688320756,C=C(C)CC(C)(C)C
1488,B-6193,(1S.6R)-3.7.7-trimethylbicyclo[4.1.0]hept-3-ene,BQOFWKZOCNGFEC-BDAKNGLRSA-N,CC1=CC[C@@H]2[C@H](C1)C2(C)C,000498-15-7,-4.566091435,CC1=CCC2C(C1)C2(C)C
1489,B-6194,1-[[[difluoro(trifluoromethoxy)methoxy]-difluoromethoxy]-difluoromethoxy]-1.1.2.2-tetrafluoro-2-(1.2.2-trifluoroethenoxy)ethane,HCGYVDVMTQESCQ-UHFFFAOYSA-N,C(=C(F)F)(OC(C(OC(OC(OC(OC(F)(F)F)(F)F)(F)F)(F)F)(F)F)(F)F)F,040573-09-9,-6.519926976,FC(F)=C(F)OC(F)(F)C(F)(F)OC(F)(F)OC(F)(F)OC(F)(F)OC(F)(F)F
1490,B-6195,6-methylhept-1-ene,DFVOXRAAHOJJBN-UHFFFAOYSA-N,CC(C)CCCC=C,011071-47-9,-3.416580136,C=CCCCC(C)C
1491,B-6196,3.3.7-trimethyl-8-methylidenetricyclo[5.4.0.02.9]undecane,PDSNLYSELAIEBU-UHFFFAOYSA-N,CC1(CCCC2(C3C1C(C2=C)CC3)C)C,000475-20-7,-4.412757327,C=C1C2CCC3C2C(C)(C)CCCC13C
1492,B-6197,2.3.3.3-tetrafluoroprop-1-ene,FXRLMCRCYDHQFW-UHFFFAOYSA-N,C=C(C(F)(F)F)F,000754-12-1,-2.759962698,C=C(F)C(F)(F)F
1493,B-6198,2.2.2-trifluoroacetonitrile,SFFUEHODRAXXIA-UHFFFAOYSA-N,C(#N)C(F)(F)F,036443-68-2,-5.960781687,N#CC(F)(F)F
1494,B-6199,2.6.10.15.19.23-Hexamethyltetracosane,PRAKJMSDJKAYCZ-UHFFFAOYSA-N,CC(C)CCCC(C)CCCC(C)CCCCC(C)CCCC(C)CCCC(C)C,000111-01-3,-4.848004066,CC(C)CCCC(C)CCCC(C)CCCCC(C)CCCC(C)CCCC(C)C