,C_ID,Name,InChIKey,SMILES,CAS,LogS,smiles_canon
3167,B-7942,(2S)-2-[[(2S)-2-[[(2S.5R)-2.5-diamino-6-hydroxy-3-(4-hydroxyphenyl)-4-oxohexanoyl]amino]-3-hydroxypropanoyl]amino]-4-methylsulfanylbutanoic acid,VDBYNBBWIWHRSI-GDOYIGSPSA-N,CSCC[C@@H](C(=O)O)NC(=O)[C@H](CO)NC(=O)[C@H](C(C1=CC=C(C=C1)O)C(=O)[C@@H](CO)N)N,022221-10-9,-6.18196768,CSCCC(NC(=O)C(CO)NC(=O)C(N)C(C(=O)C(N)CO)c1ccc(O)cc1)C(=O)O
3168,B-7943,1-[4-[(2R.3S.4R.5R.6S)-4.5-dihydroxy-6-(hydroxymethyl)-3-[(2S.3R.4R.5R.6S)-3.4.5-trihydroxy-6-methyloxan-2-yl]oxyoxan-2-yl]oxy-2.6-dihydroxyphenyl]-3-(4-hydroxyphenyl)propan-1-one,CWBZAESOUBENAP-IKACCGSXSA-N,C[C@H]1[C@@H]([C@H]([C@H]([C@@H](O1)O[C@H]2[C@@H]([C@H]([C@@H](O[C@@H]2OC3=CC(=C(C(=C3)O)C(=O)CCC4=CC=C(C=C4)O)O)CO)O)O)O)O)O,018916-17-1,-2.994486563,CC1OC(OC2C(Oc3cc(O)c(C(=O)CCc4ccc(O)cc4)c(O)c3)OC(CO)C(O)C2O)C(O)C(O)C1O
3169,B-7944,3-(dodecyl-dimethylazaniumyl)-2-hydroxypropane-1-sulfonate,DDGPBVIAYDDWDH-UHFFFAOYSA-N,CCCCCCCCCCCC[N+](C)(C)CC(CS(=O)(=O)[O-])O,013197-76-7,0.286529717,CCCCCCCCCCCC[N+](C)(C)CC(O)CS(=O)(=O)[O-]
3170,B-7945,2-hydroxy-3-pyridin-1-ium-1-ylpropane-1-sulfonate,RJPRZHQPROLZRW-UHFFFAOYSA-N,C1=CC=[N+](C=C1)CC(CS(=O)(=O)[O-])O,003918-73-8,0.770271775,O=S(=O)([O-])CC(O)C[n+]1ccccc1
3171,B-7946,(2S)-2-amino-3-phosphonooxypropanoic acid,BZQFBWGGLXLEPQ-REOHCLBHSA-N,C([C@@H](C(=O)O)N)OP(=O)(O)O,000407-41-0,-0.814943454,NC(COP(=O)(O)O)C(=O)O
3172,B-7947,4-(1.1.2-trimethylbenzo[e]indol-3-ium-3-yl)butane-1-sulfonate,GJCURKVOCXJAIV-UHFFFAOYSA-N,CC1=[N+](C2=C(C1(C)C)C3=CC=CC=C3C=C2)CCCCS(=O)(=O)[O-],063149-24-6,-2.207978464,CC1=[N+](CCCCS(=O)(=O)[O-])c2ccc3ccccc3c2C1(C)C
3173,B-7948,bis(2-ethylhexoxy)-oxophosphanium,ZLMKQJQJURXYLC-UHFFFAOYSA-N,CCCCC(CC)CO[P+](=O)OCC(CC)CCCC,003658-48-8,-5.374302928,CCCCC(CC)CO[P+](=O)OCC(CC)CCCC
3174,B-7949,[5-(4-amino-2-oxopyrimidin-1-yl)-3.4-dihydroxyoxolan-2-yl]methyl dihydrogen phosphate,IERHLVCPSMICTF-UHFFFAOYSA-N,C1=CN(C(=O)N=C1N)C2C(C(C(O2)COP(=O)(O)O)O)O,000063-37-6,-1.198776293,Nc1ccn(C2OC(COP(=O)(O)O)C(O)C2O)c(=O)n1
3175,B-7951,1-[4-[(2S.3R.4S.5S.6R)-4.5-dihydroxy-6-(hydroxymethyl)-3-[(2S.3R.4R.5R.6S)-3.4.5-trihydroxy-6-methyloxan-2-yl]oxyoxan-2-yl]oxy-2.6-dihydroxyphenyl]-3-(3-hydroxy-4-methoxyphenyl)propan-1-one,ITVGXXMINPYUHD-CUVHLRMHSA-N,C[C@H]1[C@@H]([C@H]([C@H]([C@@H](O1)O[C@@H]2[C@H]([C@@H]([C@H](O[C@H]2OC3=CC(=C(C(=C3)O)C(=O)CCC4=CC(=C(C=C4)OC)O)O)CO)O)O)O)O)O,020702-77-6,-3.185105233,COc1ccc(CCC(=O)c2c(O)cc(OC3OC(CO)C(O)C(O)C3OC3OC(C)C(O)C(O)C3O)cc2O)cc1O
3176,B-7952,trimethylsilicon,DCERHCFNWRGHLK-UHFFFAOYSA-N,C[Si](C)C,000993-07-7,-1.718324305,C[Si](C)C
3177,B-7953,6-chloro-3-piperidin-1-ium-4-yl-1H-benzimidazol-2-one,DOAYWDKFDPSTSV-UHFFFAOYSA-N,C1CNCCC1N2C3=C(C=C(C=C3)Cl)NC2=O,053786-28-0,-2.661328125,O=c1[nH]c2cc(Cl)ccc2n1C1CCNCC1
3178,B-7954,[(3S.4R)-4-(4-fluorophenyl)-1-methylpiperidin-1-ium-3-yl]methanol,CXRHUYYZISIIMT-AAEUAGOBSA-N,CN1CCC(C(C1)CO)C2=CC=C(C=C2)F,105812-81-5,-1.371145668,CN1CCC(c2ccc(F)cc2)C(CO)C1
3179,B-7955,benzo[c][1.2]benzoxaphosphinin-6-ium 6-oxide,DWSWCPPGLRSPIT-UHFFFAOYSA-N,C1=CC=C2C(=C1)C3=CC=CC=C3[P+](=O)O2,035948-25-5,-1.779622731,O=[p+]1oc2ccccc2c2ccccc21
3180,B-7956,(2S.4R)-1-acetyl-4-hydroxypyrrolidine-2-carboxylic acid,BAPRUDZDYCKSOQ-RITPCOANSA-N,CC(=O)N1C[C@@H](C[C@H]1C(=O)O)O,033996-33-7,0.342452319,CC(=O)N1CC(O)CC1C(=O)O
3181,B-7957,4-[[2.4-dihydroxy-5-[(2-hydroxy-3.5-dinitrophenyl)diazenyl]-3-[(4-nitrophenyl)diazenyl]phenyl]diazenyl]-5-hydroxynaphthalene-2.7-disulfonic acid,DLFQBOOBABMDKU-UHFFFAOYSA-N,C1=CC(=CC=C1N=NC2=C(C(=CC(=C2O)N=NC3=C4C(=CC(=C3)S(=O)(=O)O)C=C(C=C4O)S(=O)(=O)O)N=NC5=C(C(=CC(=C5)[N+](=O)[O-])[N+](=O)[O-])O)O)[N+](=O)[O-],008011-86-7,-0.944315963,O=[N+]([O-])c1ccc(N=Nc2c(O)c(N=Nc3cc([N+](=O)[O-])cc([N+](=O)[O-])c3O)cc(N=Nc3cc(S(=O)(=O)O)cc4cc(S(=O)(=O)O)cc(O)c34)c2O)cc1
3182,B-7958,2-[2-[2-[2-[1.3-dioxo-1-[(2-oxo-1.3-dihydrobenzimidazol-5-yl)amino]butan-2-yl]diazenylphenoxy]ethoxy]phenyl]diazenyl-3-oxo-N-(2-oxo-1.3-dihydrobenzimidazol-5-yl)butanamide,PUNNQKXGKNOLTB-UHFFFAOYSA-N,CC(=O)C(C(=O)NC1=CC2=C(C=C1)NC(=O)N2)N=NC3=CC=CC=C3OCCOC4=CC=CC=C4N=NC(C(=O)C)C(=O)NC5=CC6=C(C=C5)NC(=O)N6,077804-81-0,-7.63448379,CC(=O)C(N=Nc1ccccc1OCCOc1ccccc1N=NC(C(C)=O)C(=O)Nc1ccc2[nH]c(=O)[nH]c2c1)C(=O)Nc1ccc2[nH]c(=O)[nH]c2c1
3183,B-7959,[2-(bis(phosphonomethyl)amino)ethyl-(phosphonomethyl)amino]methylphosphonic acid,NFDRPXJGHKJRLJ-UHFFFAOYSA-N,C(CN(CP(=O)(O)O)CP(=O)(O)O)N(CP(=O)(O)O)CP(=O)(O)O,001429-50-1,-1.162489927,O=P(O)(O)CN(CCN(CP(=O)(O)O)CP(=O)(O)O)CP(=O)(O)O
3184,B-7960,1-[bis(4-fluorophenyl)methyl]piperazine,TTXIFFYPVGWLSE-UHFFFAOYSA-N,C1CN(CCN1)C(C2=CC=C(C=C2)F)C3=CC=C(C=C3)F,027469-60-9,-2.875558608,Fc1ccc(C(c2ccc(F)cc2)N2CCNCC2)cc1
3185,B-7961,3-[dimethyl-[2-(2-methylprop-2-enoyloxy)ethyl]azaniumyl]propane-1-sulfonate,BCAIDFOKQCVACE-UHFFFAOYSA-N,CC(=C)C(=O)OCC[N+](C)(C)CCCS(=O)(=O)[O-],003637-26-1,0.962751474,C=C(C)C(=O)OCC[N+](C)(C)CCCS(=O)(=O)[O-]
3186,B-7963,N-phenyl-N-piperidin-1-ium-4-ylpropanamide,PMCBDBWCQQBSRJ-UHFFFAOYSA-N,CCC(=O)N(C1CCNCC1)C2=CC=CC=C2,001609-66-1,-0.83333222,CCC(=O)N(c1ccccc1)C1CCNCC1
3187,B-7964,[2-[3-[(4-amino-2-methylpyrimidin-5-yl)methyl]-4-methyl-1.3-thiazol-3-ium-5-yl]ethoxy-hydroxyphosphoryl] hydrogen phosphate,AYEKOFBPNLCAJY-UHFFFAOYSA-N,CC1=C(SC=[N+]1CC2=CN=C(N=C2N)C)CCOP(=O)(O)OP(=O)(O)[O-],000136-09-4,-0.741186708,Cc1ncc(C[n+]2csc(CCOP(=O)(O)OP(=O)([O-])O)c2C)c(N)n1
3188,B-7965,2-[1-(2-amino-2-oxoethyl)cyclohexyl]acetic acid,QJGSJXLCJRXTRY-UHFFFAOYSA-N,C1CCC(CC1)(CC(=O)N)CC(=O)O,099189-60-3,-1.871263536,NC(=O)CC1(CC(=O)O)CCCCC1
3189,B-7967,[bis[6-(bis(phosphonomethyl)amino)hexyl]amino]methylphosphonic acid,YWMWZKYVGNWJPU-UHFFFAOYSA-N,C(CCCN(CP(=O)(O)O)CP(=O)(O)O)CCN(CCCCCCN(CP(=O)(O)O)CP(=O)(O)O)CP(=O)(O)O,034690-00-1,-0.095590598,O=P(O)(O)CN(CCCCCCN(CP(=O)(O)O)CP(=O)(O)O)CCCCCCN(CP(=O)(O)O)CP(=O)(O)O
3190,B-7968,2-[[2-[2-[3-(3.5-ditert-butyl-4-hydroxyphenyl)propanoyloxy]ethylamino]-2-oxoacetyl]amino]ethyl 3-(3.5-ditert-butyl-4-hydroxyphenyl)propanoate,OXWDLAHVJDUQJM-UHFFFAOYSA-N,CC(C)(C)C1=CC(=CC(=C1O)C(C)(C)C)CCC(=O)OCCNC(=O)C(=O)NCCOC(=O)CCC2=CC(=C(C(=C2)C(C)(C)C)O)C(C)(C)C,070331-94-1,-8.667093289,CC(C)(C)c1cc(CCC(=O)OCCNC(=O)C(=O)NCCOC(=O)CCc2cc(C(C)(C)C)c(O)c(C(C)(C)C)c2)cc(C(C)(C)C)c1O
3191,B-7969,2-ethylhexyl 4-[[4-[[4-(tert-butylcarbamoyl)phenyl]amino]-6-[[4-(2-ethylhexoxycarbonyl)phenyl]amino]-1.3.5-triazin-2-yl]amino]benzoate,OSCJHTSDLYVCQC-UHFFFAOYSA-N,CCCCC(CC)COC(=O)C1=CC=C(C=C1)NC2=NC(=NC(=N2)NC3=CC=C(C=C3)C(=O)NC(C)(C)C)NC4=CC=C(C=C4)C(=O)OCC(CC)CCCC,154702-15-5,-8.185255363,CCCCC(CC)COC(=O)c1ccc(Nc2nc(Nc3ccc(C(=O)NC(C)(C)C)cc3)nc(Nc3ccc(C(=O)OCC(CC)CCCC)cc3)n2)cc1
3192,B-7970,2-[3.3-bis(3-tert-butyl-4-hydroxyphenyl)butanoyloxy]ethyl 3.3-bis(3-tert-butyl-4-hydroxyphenyl)butanoate,JOWXNCPELQZFHF-UHFFFAOYSA-N,CC(C)(C)C1=C(C=CC(=C1)C(C)(CC(=O)OCCOC(=O)CC(C)(C2=CC(=C(C=C2)O)C(C)(C)C)C3=CC(=C(C=C3)O)C(C)(C)C)C4=CC(=C(C=C4)O)C(C)(C)C)O,032509-66-3,-6.201433505,CC(C)(C)c1cc(C(C)(CC(=O)OCCOC(=O)CC(C)(c2ccc(O)c(C(C)(C)C)c2)c2ccc(O)c(C(C)(C)C)c2)c2ccc(O)c(C(C)(C)C)c2)ccc1O
3193,B-7975,2.3.4.5-tetraiodo-1H-pyrrole,VJOVAKSZILJDBB-UHFFFAOYSA-N,IC1[NH]C(C(C1I)I)I,000087-58-1,-3.46,IC1NC(I)C(I)C1I
3194,B-7976,(4S.4aS.5aR.12aR)-2-carbamoyl-7-(dimethylamino)-4-(dimethylazaniumyl)-10.11.12a-trihydroxy-3.12-dioxo-4a.5.5a.6-tetrahydro-4H-tetracen-1-olate,FFTVPQUHLQBXQZ-KVUCHLLUSA-N,CN([C@@H]1C(=O)C(=C([C@@]2([C@H]1C[C@@H]1CC3C(C(=C1C2=O)O)C(O)CCC3N(C)C)O)O)C(=O)N)C,010118-90-8,-0.944371617,CN(C)C1CCC(O)C2C(O)=C3C(=O)C4(O)C(O)=C(C(N)=O)C(=O)C(N(C)C)C4CC3CC21
3195,B-7978,Methyl 4-hydroxybenzoate,LXCFILQKKLGQFO-UHFFFAOYSA-N,COC(=O)C1CCC(CC1)O,000099-76-3,-1.78,COC(=O)C1CCC(O)CC1
3196,B-7979,(2S)-2-hydroxy-1.2-di(phenyl)ethanone,ISAOCJYIOMOJEB-ZDUSSCGKSA-N,O[C@H](C(=O)C1CCCCC1)C1CCCCC1,000579-44-2,-2.8499999,O=C(C1CCCCC1)C(O)C1CCCCC1
3197,B-7981,(1R.9S)-7.11-diazatricyclo[7.3.1.02.7]trideca-2.4-dien-6-one,ANJTVLIZGCUXLD-DTWKUNHWSA-N,O=C1CCCC2N1C[C@@H]1CNC[C@H]2C1,003728-36-7,0.36000001,O=C1CCCC2C3CNCC(C3)CN12
3198,B-7982,(6-tert-butyl-3-methyl-2.4-dinitrophenyl) acetate,LWULXYSYLOIDQY-UHFFFAOYSA-N,CC(=O)OC1C([N+](=O)[O-])C(C)C(CC1C(C)(C)C)[N+](=O)[O-],002487-01-6,-4.4699998,CC(=O)OC1C([N+](=O)[O-])C(C)C([N+](=O)[O-])CC1C(C)(C)C
3199,B-7983,6.8-dimethylpyrimido[5.6-e][1.2.4]triazine-5.7-dione,RRTKVYSLIGQWCO-UHFFFAOYSA-N,CN1C2NNCNC2C(=O)N(C1=O)C,000483-57-8,-1.984900691,CN1C(=O)C2NCNNC2N(C)C1=O
3200,B-7985,3-prop-2-enoxy-1.2-benzothiazole 1.1-dioxide,WHHIPMZEDGBUCC-UHFFFAOYSA-N,C=CCOC1=NS(=O)(=O)C2C1CCCC2,027605-76-1,-3.172692427,C=CCOC1=NS(=O)(=O)C2CCCCC12
3201,B-7986,N-(morpholin-4-ylmethyl)pyrazine-2-carboxamide,GVTLAVKAVSKBKK-UHFFFAOYSA-N,O=C(C1NCCNC1)NCN1CCOCC1,000952-54-5,0.175997452,O=C(NCN1CCOCC1)C1CNCCN1
3202,B-7987,1.3.8-trimethyl-7H-purine-2.6-dione,WZBKGWBHAPBSBF-UHFFFAOYSA-N,CC1[NH]C2C(N1)N(C)C(=O)N(C2=O)C,000830-65-9,-0.727611933,CC1NC2C(=O)N(C)C(=O)N(C)C2N1
3203,B-7989,2-acetyloxy-5-bromobenzoic acid,VRJBEVQGJOSGOX-UHFFFAOYSA-N,CC(=O)OC1CCC(CC1C(=O)O)Br,001503-53-3,-2.589461507,CC(=O)OC1CCC(Br)CC1C(=O)O
3204,B-7990,2-[2.2-di(phenyl)acetyl]indene-1.3-dione,JYGLAHSAISAEAL-UHFFFAOYSA-N,O=C(C1C(=O)C2C(C1=O)CCCC2)C(C1CCCCC1)C1CCCCC1,000082-66-6,-6.054840215,O=C1C(C(=O)C(C2CCCCC2)C2CCCCC2)C(=O)C2CCCCC12
3205,B-7991,8-(2-hydroxyethyl-methylamino)-1.3.7-trimethylpurine-2.6-dione,ZGNRRVAPHPANFI-UHFFFAOYSA-N,OCCN(C1NC2C(N1C)C(=O)N(C(=O)N2C)C)C,030924-31-3,-0.648829836,CN1C(=O)C2C(NC(N(C)CCO)N2C)N(C)C1=O
3206,B-7992,(4R.4aR.7S.7aR.12bS)-3-methyl-9-phenylmethoxy-2.4.4a.7.7a.13-hexahydro-1H-4.12-methanobenzofuro[3.2-e]isoquinolin-7-ol,RDJGWRFTDZZXSM-RNWLQCGYSA-N,CN1CC[C@@]23[C@@H]4[C@H]1CC1C3C(O[C@H]2[C@H](C=C4)O)C(CC1)OCC1CCCCC1,014297-87-1,-2.972512926,CN1CCC23C4C=CC(O)C2OC2C(OCC5CCCCC5)CCC(CC41)C23
3207,B-7993,N-(4-methyl-5-oxodithiolo[3.4-d]pyrrol-6-yl)acetamide,MHMRAFONCSQAIA-UHFFFAOYSA-N,CC(=O)NC1C(=O)N(C2C1SSC2)C,000087-11-6,-3.036256179,CC(=O)NC1C(=O)N(C)C2CSSC12
3208,B-7994,[(5-nitrofuran-2-yl)methylideneamino]urea,IAIWVQXQOWNYOU-FPYGCLRLSA-N,NC(=O)N/N=C/C1CCC(O1)[N+](=O)[O-],008027-71-2,-2.97474848,NC(=O)NN=CC1CCC([N+](=O)[O-])O1
3209,B-7996,4-amino-N-pyrimidin-2-ylbenzenesulfonamide,SEEPANYCNGTZFQ-UHFFFAOYSA-N,NC1CCC(CC1)S(=O)(=O)NC1NCCCN1,000068-35-9,-3.51,NC1CCC(S(=O)(=O)NC2NCCCN2)CC1
3210,B-7997,4-amino-N-(5-methylpyrimidin-2-yl)benzenesulfonamide,DZQVFHSCSRACSX-UHFFFAOYSA-N,CC1CNC(NC1)NS(=O)(=O)C1CCC(CC1)N,000599-88-2,-2.8199999,CC1CNC(NS(=O)(=O)C2CCC(N)CC2)NC1
3211,B-7999,2.2-dichloro-N-(2-hydroxyethyl)-N-[[4-(4-nitrophenoxy)phenyl]methyl]acetamide,ODCUSWJXZDHLKV-UHFFFAOYSA-N,OCCN(C(=O)C(Cl)Cl)CC1CCC(CC1)OC1CCC(CC1)[N+](=O)[O-],003576-64-5,-5.124095387,O=C(C(Cl)Cl)N(CCO)CC1CCC(OC2CCC([N+](=O)[O-])CC2)CC1
3212,B-8024,[(2R)-butan-2-yl]benzene,ZJMWRROPUADPEA-SECBINFHSA-N,CC[C@H](C1CCCCC1)C,005787-29-1,-3.8900001,CCC(C)C1CCCCC1
3213,B-8033,2.2-dimethylpropylbenzene,CJGXJKVMUHXVHL-UHFFFAOYSA-N,CC(CC1CCCCC1)(C)C,001007-26-7,-4.1500001,CC(C)(C)CC1CCCCC1
3214,B-8069,(1R.9R.10R)-17-methyl-17-azatetracyclo[7.5.3.01.10.02.7]heptadeca-2.4.6-triene,IHBSVVZENGBQDY-BBWFWOEESA-N,CN1CC[C@@]23[C@H]([C@H]1CC1C3CCCC1)CCCC2,003882-38-0,-3.272107992,CN1CCC23CCCCC2C1CC1CCCCC13
3215,B-8076,1.2-Dichloro-4-isothiocyanatobenzene,OSBIEFWIIINTNJ-UHFFFAOYSA-N,S=C=NC1CCC(C(C1)Cl)Cl,006590-94-9,-4.633996545,S=C=NC1CCC(Cl)C(Cl)C1
3216,B-8077,2-chloro-1.3-benzoxazole,BBVQDWDBTWSGHQ-UHFFFAOYSA-N,ClC1NC2C(O1)CCCC2,000615-18-9,-2.05756996,ClC1NC2CCCCC2O1
3217,B-8078,1-(1-Phenylcyclohexyl)piperidine,JTJMJGYZQZDUJJ-UHFFFAOYSA-N,C1CCC(CC1)(N1CCCCC1)C1CCCCC1,000077-10-1,-3.933450532,C1CCC(C2(N3CCCCC3)CCCCC2)CC1
3218,B-8080,2-ethoxy-4-methyl-1-propan-2-ylbenzene,XBHCIDWYCKQMQS-UHFFFAOYSA-N,CCOC1CC(C)CCC1C(C)C,004732-12-1,-4.402901304,CCOC1CC(C)CCC1C(C)C
3219,B-8083,2-methyl-3.4-dihydro-1H-isoquinoline,KYXSVGVQGFPNRQ-UHFFFAOYSA-N,CN1CCC2C(C1)CCCC2,001612-65-3,-0.940083029,CN1CCC2CCCCC2C1
3220,B-8084,4.6.7-trichloro-2.1.3-benzothiadiazole,SZYWFOPNFNROQB-UHFFFAOYSA-N,ClC1CC(Cl)C2C(C1Cl)NSN2,001982-55-4,-4.98,ClC1CC(Cl)C2NSNC2C1Cl
3221,B-8095,1.2.5-trichloro-3-(2.4.6-trichlorophenyl)benzene,CTVRBEKNQHJPLX-UHFFFAOYSA-N,ClC1CC(Cl)C(C(C1)Cl)C1CC(Cl)CC(C1Cl)Cl,074472-41-6,-8.710000012,ClC1CC(Cl)C(C2CC(Cl)CC(Cl)C2Cl)C(Cl)C1
3222,B-8100,1-(2-Phenylethyl)piperidine,DBDVAKGHPZJLTH-UHFFFAOYSA-N,C1CCN(CC1)CCC1CCCCC1,000332-14-9,-2.456953743,C1CCC(CCN2CCCCC2)CC1
3223,B-8103,5-Methyl-1.3-benzodioxole,GHPODDMCSOYWNE-UHFFFAOYSA-N,CC1CCC2C(C1)OCO2,007145-99-5,-2.41717989,CC1CCC2OCOC2C1
3224,B-8110,2-methyl-2.3-dihydro-1-benzofuran,BWCJVGMZEQDOMY-UHFFFAOYSA-N,CC1CC2C(O1)CCCC2,001746-11-8,-2.679903273,CC1CC2CCCCC2O1
3225,B-8117,1-(1-phenylpentan-2-yl)pyrrolidine,OJCPSBCUMRIPFL-UHFFFAOYSA-N,CCCC(N1CCCC1)CC1CCCCC1,001211-28-5,-3.437296437,CCCC(CC1CCCCC1)N1CCCC1
3226,B-8127,2.5-bis(2-methylpentan-2-yl)-[1.3]thiazolo[5.4-d][1.3]thiazole,VMPAHPDCSQOZIS-UHFFFAOYSA-N,CCCC(C1NC2C(S1)NC(S2)C(CCC)(C)C)(C)C,033328-58-4,-7.402181698,CCCC(C)(C)C1NC2SC(C(C)(C)CCC)NC2S1
3227,B-8129,2-methoxy-4-methyl-1-propan-2-ylbenzene,LSQXNMXDFRRDSJ-UHFFFAOYSA-N,COC1CC(C)CCC1C(C)C,001076-56-8,-3.881046339,COC1CC(C)CCC1C(C)C
3228,B-8135,7-Ethyl-1.4-dimethylazulene,GXGJIOMUZAGVEH-UHFFFAOYSA-N,CCC1CCC(C2C(C1)C(C)CC2)C,000529-05-5,-5.619864179,CCC1CCC(C)C2CCC(C)C2C1
3229,B-8138,O-ethyl 4-chlorobenzenecarbothioate,ZSRGLQQAHXRPJC-UHFFFAOYSA-N,CCOC(=S)C1CCC(CC1)Cl,013915-60-1,-3.63318719,CCOC(=S)C1CCC(Cl)CC1
3230,B-8139,7-phenyl-2.3.4.8.9.9a-hexahydro-1H-quinolizine,AMNIUADSZBSURC-UHFFFAOYSA-N,C1CCN2C(C1)CCC(=C2)C1CCCCC1,057120-87-3,-3.366670403,C1=C(C2CCCCC2)CCC2CCCCN12
3231,B-8150,3-Ethyl-2.4-dimethyl-1H-pyrrole,ZEBBLOXDLGIMEG-UHFFFAOYSA-N,CCC1C(C)C[NH]C1C,000517-22-6,-2.585185855,CCC1C(C)CNC1C
3232,B-8156,2-methyl-1-[3-(phenoxy)propyl]piperidine,OTMLATMCCJDRRG-UHFFFAOYSA-N,CC1CCCCN1CCCOC1CCCCC1,063885-12-1,-3.346827812,CC1CCCCN1CCCOC1CCCCC1
3233,B-8159,2-tert-Butyl-6-methylphenol,BKZXZGWHTRCFPX-UHFFFAOYSA-N,CC1CCCC(C1O)C(C)(C)C,002219-82-1,-2.727796227,CC1CCCC(C(C)(C)C)C1O
3234,B-8165,1-iodo-2-phenylbenzene,QFUYDAGNUJWBSM-UHFFFAOYSA-N,IC1CCCCC1C1CCCCC1,002113-51-1,-5.448630354,IC1CCCCC1C1CCCCC1
3235,B-8167,5-[(Z)-prop-1-enyl]-1.3-benzodioxole,VHVOLFRBFDOUSH-IHWYPQMZSA-N,C/C=C\C1CCC2C(C1)OCO2,017627-76-8,-3.262095099,CC=CC1CCC2OCOC2C1
3236,B-8168,Thieno[3.2-c]pyridine,MKYRMMMSZSVIGD-UHFFFAOYSA-N,C1NCC2C(C1)SCC2,000272-14-0,-1.674559292,C1CC2SCCC2CN1
3237,B-8171,1-(2-pyrrolidin-1-ylethyl)-2.3.4.5-tetrahydro-1-benzazepine,UONKAYXKEKSURY-UHFFFAOYSA-N,C1CCC2C(N(C1)CCN1CCCC1)CCCC2,054951-33-6,-3.52296524,C1CCC2C(C1)CCCCN2CCN1CCCC1
3238,B-8172,N.2-dimethyl-1-phenylpropan-2-amine,RXQCGGRTAILOIN-UHFFFAOYSA-N,CNC(CC1CCCCC1)(C)C,000100-92-5,-1.549472247,CNC(C)(C)CC1CCCCC1
3239,B-8173,5-chloro-1.3-benzoxazole,VWMQXAYLHOSRKA-UHFFFAOYSA-N,ClC1CCC2C(C1)NCO2,017200-29-2,-2.339955132,ClC1CCC2OCNC2C1
3240,B-8174,2-methyl-1-(2-phenylethyl)-3.4.5.6.7.8-hexahydro-1H-isoquinoline,KDCYOWUMMCQWCJ-UHFFFAOYSA-N,CN1CCC2=C(C1CCC1CCCCC1)CCCC2,041712-62-3,-4.659817587,CN1CCC2=C(CCCC2)C1CCC1CCCCC1
3241,B-8175,3-methyl-2.6-di(propan-2-yl)phenol,KEGGEHPMMDYTGB-UHFFFAOYSA-N,CC(C1CCC(C(C1O)C(C)C)C)C,028434-93-7,-3.544411457,CC(C)C1CCC(C)C(C(C)C)C1O
3242,B-8177,1-[4-methoxy-4-(3-methylphenyl)cyclohexyl]piperidine,ROLOQLFLZPBXLY-UHFFFAOYSA-N,COC1(CCC(CC1)N1CCCCC1)C1CCCC(C1)C,063885-11-0,-4.599419468,COC1(C2CCCC(C)C2)CCC(N2CCCCC2)CC1
3243,B-8180,3.5-Dichloro-2.4-dimethoxy-6-(trichloromethyl)pyridine,DZVPGIORVGSQMC-UHFFFAOYSA-N,COC1NC(C(C(C1Cl)OC)Cl)C(Cl)(Cl)Cl,108030-77-9,-5.512405523,COC1NC(C(Cl)(Cl)Cl)C(Cl)C(OC)C1Cl
3244,B-8181,1.3-Dimethyl-2-phenylimidazolidine,QISTUHYRFABJSG-UHFFFAOYSA-N,CN1CCN(C1C1CCCCC1)C,023229-37-0,-0.132217805,CN1CCN(C)C1C1CCCCC1
3245,B-8182,5.7-Dichloroquinolin-8-ol,WDFKMLRRRCGAKS-UHFFFAOYSA-N,ClC1CC(Cl)C2C(C1O)NCCC2,000773-76-2,-3.272838983,OC1C(Cl)CC(Cl)C2CCCNC12
3246,B-8184,1-methyl-3-(3-methylphenoxy)benzene,FDLFMPKQBNPIER-UHFFFAOYSA-N,CC1CCCC(C1)OC1CCCC(C1)C,019814-71-2,-4.8499999,CC1CCCC(OC2CCCC(C)C2)C1
3247,B-8186,2-Ethyl-1.3-benzoxazole,YPIFLXOVPCARGI-UHFFFAOYSA-N,CCC1NC2C(O1)CCCC2,006797-13-3,-2.630020851,CCC1NC2CCCCC2O1
3248,B-8188,2-methyl-2.3-dihydro-1H-indole,QRWRJDVVXAXGBT-UHFFFAOYSA-N,CC1CC2C(N1)CCCC2,138380-84-4,-2.288160546,CC1CC2CCCCC2N1
3249,B-8190,Thieno[2.3-c]pyridine,GDQBPBMIAFIRIU-UHFFFAOYSA-N,C1NCC2C(C1)CCS2,000272-12-8,-1.674559292,C1CC2CCSC2CN1
3250,B-8197,3-(2-methoxyphenyl)-2.3.4.6.7.8.9.9a-octahydro-1H-quinolizine,XEAVLJLNCQZBQI-UHFFFAOYSA-N,COC1CCCCC1C1CCC2N(C1)CCCC2,063716-71-2,-3.551595161,COC1CCCCC1C1CCC2CCCCN2C1
3251,B-8198,5-chloro-2-methyl-1.3-benzoxazole,HJCIGAUHTJBHBQ-UHFFFAOYSA-N,ClC1CCC2C(C1)NC(O2)C,019219-99-9,-2.910386063,CC1NC2CC(Cl)CCC2O1
3252,B-8199,1.1-dimethyl-2-(1-phenylpropan-2-yl)hydrazine,PNZKOOCCVBURLG-UHFFFAOYSA-N,CC(CC1CCCCC1)NN(C)C,004836-62-8,-1.924764353,CC(CC1CCCCC1)NN(C)C
3253,B-8200,3-Methyl-3-phenylazetidine,YOLLUMURPUEOJW-UHFFFAOYSA-N,CC1(CNC1)C1CCCCC1,005961-33-1,-1.22695549,CC1(C2CCCCC2)CNC1
3254,B-8202,(2R)-2-phenyloxirane,AWMVMTVKBNGEAK-QMMMGPOBSA-N,O1C[C@H]1C1CCCCC1,020780-53-4,-1.6,C1CCC(C2CO2)CC1
3255,B-8205,1.4-Diisothiocyanatobenzene,OMWQUXGVXQELIX-UHFFFAOYSA-N,S=C=NC1CCC(CC1)N=C=S,004044-65-9,-5.375229546,S=C=NC1CCC(N=C=S)CC1
3256,B-8208,N-propan-2-yl-N-[2-(2.3.4.5-tetrahydro-1-benzazepin-1-yl)ethyl]propan-2-amine,JHOORYVOLSYYMM-UHFFFAOYSA-N,CC(N(C(C)C)CCN1CCCCC2C1CCCC2)C,054951-34-7,-4.551412022,CC(C)N(CCN1CCCCC2CCCCC21)C(C)C
3257,B-8209,5-methoxy-1-benzofuran,JJXPTUWJVQUHKN-UHFFFAOYSA-N,COC1CCC2C(C1)CCO2,013391-28-1,-2.519455887,COC1CCC2OCCC2C1
3258,B-8210,3.5-dimethyl-1.2-oxazole,FICAQKBMCKEFDI-UHFFFAOYSA-N,CC1ONC(C1)C,000300-87-8,-1.029065931,CC1CC(C)ON1
3259,B-8211,1.3-dimethyl-2-(4-methylphenyl)imidazolidine,SQCWXTCIGOVJIK-UHFFFAOYSA-N,CN1CCN(C1C1CCC(CC1)C)C,023229-38-1,-0.703074593,CC1CCC(C2N(C)CCN2C)CC1
3260,B-8215,N.N-di(propan-2-yl)-3-(2.3.4.5-tetrahydro-1-benzazepin-1-yl)propan-1-amine,HGUGVPVTKBLXPA-UHFFFAOYSA-N,CC(N(C(C)C)CCCN1CCCCC2C1CCCC2)C,054951-35-8,-5.072724378,CC(C)N(CCCN1CCCCC2CCCCC21)C(C)C
3261,B-8216,2.6-Dipropylphenol,NAILKKRDWBJCNH-UHFFFAOYSA-N,CCCC1CCCC(C1O)CCC,006626-32-0,-3.313121418,CCCC1CCCC(CCC)C1O
3262,B-8220,1-(4-fluorophenyl)propan-2-amine,DGXWNDGLEOIEGT-UHFFFAOYSA-N,CC(CC1CCC(CC1)F)N,377084-68-9,-0.981138783,CC(N)CC1CCC(F)CC1
3263,B-8221,2-diethylamino-1-phenylpropan-1-one,XXEPPPIWZFICOJ-UHFFFAOYSA-N,CCN(C(C(=O)C1CCCCC1)C)CC,000090-84-6,-2.287495084,CCN(CC)C(C)C(=O)C1CCCCC1
3264,B-8222,N.N-diethyl-2-(phenoxy)ethanamine,OOYKEEROCQGXPH-UHFFFAOYSA-N,CCN(CCOC1CCCCC1)CC,000074-40-8,-1.953770904,CCN(CC)CCOC1CCCCC1
3265,B-8223,1-phenylcyclohexan-1-ol,DTTDXHDYTWQDCS-UHFFFAOYSA-N,OC1(CCCCC1)C1CCCCC1,001589-60-2,-2.965800609,OC1(C2CCCCC2)CCCCC1
3266,B-8224,3.4-dihydro-2H-1.5-benzodioxepine,CBXMULHQEVXJDI-UHFFFAOYSA-N,C1COC2C(OC1)CCCC2,007216-18-4,-2.460600081,C1COC2CCCCC2OC1
3267,B-8225,phenyltellanylbenzene,XTCBHFKSTRGVMZ-UHFFFAOYSA-N,C1CCC(CC1)[Te]C1CCCCC1,001202-36-4,-4.46408414,C1CCC([Te]C2CCCCC2)CC1
3268,B-8227,2-(4-chlorophenyl)-1.3-dimethylimidazolidine,WEAVUIXCKWTMNE-UHFFFAOYSA-N,CN1CCN(C1C1CCC(CC1)Cl)C,023281-56-3,-0.934508757,CN1CCN(C)C1C1CCC(Cl)CC1
3269,B-8228,5.7-dichloro-2-methylquinolin-8-ol,GPTXWRGISTZRIO-UHFFFAOYSA-N,CC1CCC2C(N1)C(O)C(CC2Cl)Cl,000072-80-0,-3.244462839,CC1CCC2C(Cl)CC(Cl)C(O)C2N1
3270,B-8230,3-methyl-1.4-dihydro-2.3-benzoxazine,SBPYEMSKGZSEGI-UHFFFAOYSA-N,CN1OCC2C(C1)CCCC2,014764-25-1,-1.93319917,CN1CC2CCCCC2CO1
3271,B-8231,(1S.9S.10S)-4-methoxy-17-methyl-17-azatetracyclo[7.5.3.01.10.02.7]heptadeca-2(7).3.5-triene,MKXZASYAUGDDCJ-NJAFHUGGSA-N,COC1CCC2C(C1)[C@@]13CCCC[C@@H]3[C@H](C2)N(CC1)C,000125-71-3,-3.560295626,COC1CCC2CC3C4CCCCC4(CCN3C)C2C1
3272,B-8233,8-methyl-3-[(E)-3-phenylprop-2-enyl]-3.8-diazabicyclo[3.2.1]octane,HTWRBOWJUNHVMN-VMPITWQZSA-N,CN1C2CCC1CN(C2)C/C=C/C1CCCCC1,063977-91-3,-2.367438356,CN1C2CCC1CN(CC=CC1CCCCC1)C2
3273,B-8236,1-chloro-2-[(1R)-2.2.2-trichloro-1-(4-chlorophenyl)ethyl]benzene,CVUGPAFCQJIYDT-CYBMUJFWSA-N,ClC1CCC(CC1)[C@@H](C(Cl)(Cl)Cl)C1CCCCC1Cl,058633-26-4,-6.619999901,ClC1CCC(C(C2CCCCC2Cl)C(Cl)(Cl)Cl)CC1
3274,B-8237,N-ethoxy-1-pyridin-4-ylmethanimine,XXYCNHJBPIDFMZ-UHFFFAOYSA-N,CCON=CC1CCNCC1,060833-41-2,-0.353793347,CCON=CC1CCNCC1