,C_ID,Name,InChIKey,SMILES,CAS,LogS,smiles_canon
1912,B-6635,[1-methyl-2-[(1.2.2-trimethyl-3-bicyclo[3.1.0]hexanyl)methyl]cyclopropyl]methanol,OAKFACUIGQLOCA-UHFFFAOYSA-N,CC1(C(CC2C1(C2)C)CC3CC3(C)CO)C,198404-98-7,-4.767292209,CC1(CO)CC1CC1CC2CC2(C)C1(C)C
1913,B-6636,4-methyl-1.3-oxazole-5-carbonitrile,JZSLPQXOLZCAME-UHFFFAOYSA-N,CC1=C(OC=N1)C#N,001003-52-7,-0.324555733,Cc1ncoc1C#N
1914,B-6637,4.7-Dimethyloct-6-en-3-one,WKQWDIFHKYWRTA-UHFFFAOYSA-N,CCC(=O)C(C)CC=C(C)C,002550-11-0,-2.701091302,CCC(=O)C(C)CC=C(C)C
1915,B-6638,3.5.5-Trimethylhexanoic acid,OILUAKBAMVLXGF-UHFFFAOYSA-N,CC(CC(=O)O)CC(C)(C)C,003302-10-1,-2.354218234,CC(CC(=O)O)CC(C)(C)C
1916,B-6639,3-(2-ethylhexoxy)propan-1-amine,DVFGEIYOLIFSRX-UHFFFAOYSA-N,CCCCC(CC)COCCCN,005397-31-9,-1.096503555,CCCCC(CC)COCCCN
1917,B-6640,cyclododeca-4.8-dien-1-one,AZSAUMXEXMBZBS-UHFFFAOYSA-N,C1CC=CCCC=CCCC(=O)C1,015229-79-5,-2.810177953,O=C1CCC=CCCC=CCCC1
1918,B-6641,4-(3-piperidin-4-ylpropyl)piperidine,OXEZLYIDQPBCBB-UHFFFAOYSA-N,C1CNCCC1CCCC2CCNCC2,016898-52-5,-0.258508889,C(CC1CCNCC1)CC1CCNCC1
1919,B-6642,2-dimethylaminoethyl prop-2-enoate,DPBJAVGHACCNRL-UHFFFAOYSA-N,CN(C)CCOC(=O)C=C,002439-35-2,0.224313111,C=CC(=O)OCCN(C)C
1920,B-6643,2-(4-methylpentan-2-yl)aniline,LPZZJKBLKQOBMZ-UHFFFAOYSA-N,CC(C)CC(C)C1=CC=CC=C1N,203448-76-4,-3.55848522,CC(C)CC(C)c1ccccc1N
1921,B-6644,4-chloro-6-(2-chlorophenoxy)-5-fluoropyrimidine,RGBIKVOIODUDLX-UHFFFAOYSA-N,C1=CC=C(C(=C1)OC2=C(C(=NC=N2)Cl)F)Cl,213265-81-7,-3.478913142,Fc1c(Cl)ncnc1Oc1ccccc1Cl
1922,B-6645,1-cyclohexylpyrrole-2.5-dione,BQTPKSBXMONSJI-UHFFFAOYSA-N,C1CCC(CC1)N2C(=O)C=CC2=O,001631-25-0,-2.838408763,O=C1C=CC(=O)N1C1CCCCC1
1923,B-6646,tert-butyl 3.5.5-trimethylhexaneperoxoate,VSJBBIJIXZVVLQ-UHFFFAOYSA-N,CC(CC(=O)OOC(C)(C)C)CC(C)(C)C,013122-18-4,-4.210093462,CC(CC(=O)OOC(C)(C)C)CC(C)(C)C
1924,B-6647,2.4.5-Trichloroaniline,GUMCAKKKNKYFEB-UHFFFAOYSA-N,C1=C(C(=CC(=C1Cl)Cl)Cl)N,000636-30-6,-3.435948938,Nc1cc(Cl)c(Cl)cc1Cl
1925,B-6649,2-methyl-3-[(1.7.7-trimethyl-6-bicyclo[2.2.1]heptanyl)oxy]propan-1-ol,YCOHHRPARVZBHK-UHFFFAOYSA-N,CC(CO)COC1CC2CCC1(C2(C)C)C,128119-70-0,-3.592868393,CC(CO)COC1CC2CCC1(C)C2(C)C
1926,B-6650,6-(dibutylamino)-1.3.5-triazine-2.4-dithiol,IXDGHAZCSMVIFX-UHFFFAOYSA-N,CCCCN(CCCC)C1=NC(=NC(=N1)S)S,029529-99-5,-3.39385555,CCCCN(CCCC)c1nc(S)nc(S)n1
1927,B-6651,(2Z)-2-(phenylmethylidene)heptanal,HMKKIXGYKWDQSV-KAMYIIQDSA-N,CCCCC/C(=C/C1=CC=CC=C1)/C=O,000122-40-7,-3.046655412,CCCCCC(C=O)=Cc1ccccc1
1928,B-6652,(E)-1-(2.4.4-trimethyl-1-cyclohex-2-enyl)but-2-en-1-one,NELDPSDYTZADSA-AATRIKPKSA-N,C/C=C/C(=O)C1CCC(C=C1C)(C)C,039872-57-6,-3.208433226,CC=CC(=O)C1CCC(C)(C)C=C1C
1929,B-6653,Methyl undec-10-enoate,KISVAASFGZJBCY-UHFFFAOYSA-N,COC(=O)CCCCCCCCC=C,000111-81-9,-5.397512286,C=CCCCCCCCCC(=O)OC
1930,B-6655,Thiane-3-carbaldehyde,QWFSMJVKLCAOEB-UHFFFAOYSA-N,C1CC(CSC1)C=O,061571-06-0,-0.696324369,O=CC1CCCSC1
1931,B-6656,2.2-dimethoxyethylbenzene,WNJSKZBEWNVKGU-UHFFFAOYSA-N,COC(CC1=CC=CC=C1)OC,000101-48-4,-1.629617103,COC(Cc1ccccc1)OC
1932,B-6657,(E)-4-[(1S.5R)-2.5.6.6-tetramethyl-1-cyclohex-2-enyl]but-3-en-2-one,JZQOJFLIJNRDHK-UZPJXDOOSA-N,C[C@@H]1CC=C([C@@H](C1(C)C)/C=C/C(=O)C)C,000079-69-6,-3.802673124,CC(=O)C=CC1C(C)=CCC(C)C1(C)C
1933,B-6658,propane-1.2-diamine,AOHJOMMDDJHIJH-UHFFFAOYSA-N,CC(CN)N,000078-90-0,1.13003295,CC(N)CN
1934,B-6659,(2-chlorophenyl)-cyclopentylmethanone,QIJMMRNZBJHXRI-UHFFFAOYSA-N,C1CCC(C1)C(=O)C2=CC=CC=C2Cl,006740-85-8,-4.018465608,O=C(c1ccccc1Cl)C1CCCC1
1935,B-6660,4.4.6-trimethyl-2-(phenylmethyl)-1.3-dioxane,KSEFBQCEGMTNPD-UHFFFAOYSA-N,CC1CC(OC(O1)CC2=CC=CC=C2)(C)C,067633-94-7,-2.744683078,CC1CC(C)(C)OC(Cc2ccccc2)O1
1936,B-6661,3.7-dimethyloct-6-en-1-yn-3-ol,YWTIDNZYLFTNQQ-UHFFFAOYSA-N,CC(=CCCC(C)(C#C)O)C,029171-20-8,-1.772060461,C#CC(C)(O)CCC=C(C)C
1937,B-6662,1-(4-chlorophenyl)-2-cyclopropylpropan-1-one,LRWCURGZPQWMRG-UHFFFAOYSA-N,CC(C1CC1)C(=O)C2=CC=C(C=C2)Cl,123989-29-7,-3.77542756,CC(C(=O)c1ccc(Cl)cc1)C1CC1
1938,B-6663,prop-2-enyl 2-hydroxy-2-methylpropanoate,CTQMWJKOPOFOSX-UHFFFAOYSA-N,CC(C)(C(=O)OCC=C)O,019444-21-4,0.071574023,C=CCOC(=O)C(C)(C)O
1939,B-6664,diethoxymethoxyethane,GKASDNZWUGIAMG-UHFFFAOYSA-N,CCOC(OCC)OCC,000122-51-0,-2.040519124,CCOC(OCC)OCC
1940,B-6665,4-propan-2-ylbenzonitrile,YFDJCWXBKWRDPW-UHFFFAOYSA-N,CC(C)C1=CC=C(C=C1)C#N,013816-33-6,-2.988780348,CC(C)c1ccc(C#N)cc1
1941,B-6666,16-methylheptadecyl 16-methylheptadecanoate,ABEXEQSGABRUHS-UHFFFAOYSA-N,CC(C)CCCCCCCCCCCCCCCOC(=O)CCCCCCCCCCCCCCC(C)C,041669-30-1,-7.08649217,CC(C)CCCCCCCCCCCCCCCOC(=O)CCCCCCCCCCCCCCC(C)C
1942,B-6667,4.5.6.7-tetrachloro-2-benzofuran-1.3-dione,AUHHYELHRWCWEZ-UHFFFAOYSA-N,C12=C(C(=C(C(=C1Cl)Cl)Cl)Cl)C(=O)OC2=O,000117-08-8,-6.776783524,O=C1OC(=O)c2c(Cl)c(Cl)c(Cl)c(Cl)c21
1943,B-6669,(2.3.4.5.6-pentabromophenyl)methyl prop-2-enoate,GRKDVZMVHOLESV-UHFFFAOYSA-N,C=CC(=O)OCC1=C(C(=C(C(=C1Br)Br)Br)Br)Br,059447-55-1,-7.806077238,C=CC(=O)OCc1c(Br)c(Br)c(Br)c(Br)c1Br
1944,B-6670,4-propan-2-ylaniline,LRTFPLFDLJYEKT-UHFFFAOYSA-N,CC(C)C1=CC=C(C=C1)N,000099-88-7,-1.785826057,CC(C)c1ccc(N)cc1
1945,B-6671,4-methyl-2-pentan-3-yloxan-4-ol,SGDHXQQFXPKEGL-UHFFFAOYSA-N,CCC(CC)C1CC(CCO1)(C)O,1099648-69-7,-1.431978713,CCC(CC)C1CC(C)(O)CCO1
1946,B-6672,2-(phenylmethyl)heptan-1-ol,CGMOOAUESLSUKM-UHFFFAOYSA-N,CCCCCC(CC1=CC=CC=C1)CO,092368-90-6,-3.843264773,CCCCCC(CO)Cc1ccccc1
1947,B-6673,4.4a.5.9b-tetrahydroindeno[1.2-d][1.3]dioxine,CZSXBBWOROMVEW-UHFFFAOYSA-N,C1C2COCOC2C3=CC=CC=C31,018096-62-3,-1.656092287,c1ccc2c(c1)CC1COCOC21
1948,B-6674,2-(3.4.5-trifluorophenyl)aniline,FTIKVBVUYPQUBF-UHFFFAOYSA-N,C1=CC=C(C(=C1)C2=CC(=C(C(=C2)F)F)F)N,915416-45-4,-3.658492467,Nc1ccccc1-c1cc(F)c(F)c(F)c1
1949,B-6675,Bis(4-fluorophenyl)methanone,LSQARZALBDFYQZ-UHFFFAOYSA-N,C1=CC(=CC=C1C(=O)C2=CC=C(C=C2)F)F,000345-92-6,-4.396652981,O=C(c1ccc(F)cc1)c1ccc(F)cc1
1950,B-6676,(E.7R.11R)-3.7.11.15-tetramethylhexadec-2-en-1-ol,BOTWFXYSPFMFNR-PYDDKJGSSA-N,C[C@@H](CCC[C@@H](C)CCC/C(=C/CO)/C)CCCC(C)C,000150-86-7,-7.861735835,CC(=CCO)CCCC(C)CCCC(C)CCCC(C)C
1951,B-6677,3-(3-propan-2-ylphenyl)butanal,OHRBQTOZYGEWCJ-UHFFFAOYSA-N,CC(C)C1=CC(=CC=C1)C(C)CC=O,125109-85-5,-3.67734365,CC(C)c1cccc(C(C)CC=O)c1
1952,B-6678,2-ETHYL-6-METHYLANILINE,JJVKJJNCIILLRP-UHFFFAOYSA-N,CCC1=CC=CC(=C1N)C,024549-06-2,-1.574701173,CCc1cccc(C)c1N
1953,B-6679,4.5.6.7-tetrahydro-2H-benzotriazole,CKRLKUOWTAEKKX-UHFFFAOYSA-N,C1CCC2=NNN=C2C1,006789-99-7,-0.825641984,C1CCc2n[nH]nc2C1
1954,B-6680,pentacyclo[11.8.0.02.10.03.8.016.21]henicosa-1(13).2(10).3.5.7.11.14.16.18.20-decaene,FMBIUNYFMCJJEE-UHFFFAOYSA-N,C1C2=C(C3=CC=CC=C31)C4=C(C=C2)C=CC5=CC=CC=C54,022094-93-5,-8.010465656,c1ccc2c(c1)Cc1ccc3ccc4ccccc4c3c1-2
1955,B-6681,2-(butan-2-ylamino)ethanol,YTVUVYDVQNALCM-UHFFFAOYSA-N,CCC(C)NCCO,035265-04-4,0.666706122,CCC(C)NCCO
1956,B-6682,[(2E)-3.7-dimethylocta-2.6-dienyl] acetate,HIGQPQRQIQDZMP-DHZHZOJOSA-N,CC(=CCC/C(=C/COC(=O)C)/C)C,000105-87-3,-3.830497522,CC(=O)OCC=C(C)CCC=C(C)C
1957,B-6683,1-ethenylazepan-2-one,JWYVGKFDLWWQJX-UHFFFAOYSA-N,C=CN1CCCCCC1=O,002235-00-9,-0.450782332,C=CN1CCCCCC1=O
1958,B-6684,2-(2-Methylphenyl)ethanol,RUGISKODRCWQNE-UHFFFAOYSA-N,CC1=CC=CC=C1CCO,019819-98-8,-1.04287546,Cc1ccccc1CCO
1959,B-6685,2.4-bis(2-methylbutan-2-yl)phenol,WMVJWKURWRGJCI-UHFFFAOYSA-N,CCC(C)(C)C1=CC(=C(C=C1)O)C(C)(C)CC,000120-95-6,-4.892800778,CCC(C)(C)c1ccc(O)c(C(C)(C)CC)c1
1960,B-6686,2-Chloro-1.4-dimethoxybenzene,QMXZSRVFIWACJH-UHFFFAOYSA-N,COC1=CC(=C(C=C1)OC)Cl,002100-42-7,-2.672402153,COc1ccc(OC)c(Cl)c1
1961,B-6687,(2E)-2-benzylideneoctanal,GUUHFMWKWLOQMM-NTCAYCPXSA-N,CCCCCC/C(=C\C1=CC=CC=C1)/C=O,165184-98-5,-5.857980238,CCCCCCC(C=O)=Cc1ccccc1
1962,B-6688,3.5-bis(2.4-dimethylcyclohex-3-en-1-yl)-3.5.7.7a-tetrahydro-1H-[1.3]oxazolo[3.4-c][1.3]oxazole,ZVVAHZMAICHSOH-UHFFFAOYSA-N,CC1C=C(CCC1C2N3C(CO2)COC3C4CCC(=CC4C)C)C,1196069-20-1,-5.918419873,CC1=CC(C)C(C2OCC3COC(C4CCC(C)=CC4C)N32)CC1
1963,B-6689,6-Methylhept-5-en-2-one,UHEPJGULSIKKTP-UHFFFAOYSA-N,CC(=CCCC(=O)C)C,000110-93-0,-1.621045529,CC(=O)CCC=C(C)C
1964,B-6690,tri(phenyl)phosphane,RIOQSEWOXXDEQQ-UHFFFAOYSA-N,C1=CC=C(C=C1)P(C2=CC=CC=C2)C3=CC=CC=C3,000603-35-0,-6.46453972,c1ccc(P(c2ccccc2)c2ccccc2)cc1
1965,B-6691,3.7.11-trimethyldodec-1-yn-3-ol,OWRXWSVBJIIORE-UHFFFAOYSA-N,CC(C)CCCC(C)CCCC(C)(C#C)O,001604-35-9,-5.271802898,C#CC(C)(O)CCCC(C)CCCC(C)C
1966,B-6692,3.6.9-triethyl-3.6.9-trimethyl-1.2.4.5.7.8-hexaoxonane,KVWLLOIEGKLBPA-UHFFFAOYSA-N,CCC1(OOC(OOC(OO1)(C)CC)(C)CC)C,024748-23-0,-4.304855444,CCC1(C)OOC(C)(CC)OOC(C)(CC)OO1
1967,B-6693,4-ethenoxybutan-1-ol,HMBNQNDUEFFFNZ-UHFFFAOYSA-N,C=COCCCCO,017832-28-9,-0.189993844,C=COCCCCO
1968,B-6694,3-methyl-5-propylcyclohex-2-en-1-one,URQMEZRQHLCJKR-UHFFFAOYSA-N,CCCC1CC(=CC(=O)C1)C,003720-16-9,-1.77258367,CCCC1CC(=O)C=C(C)C1
1969,B-6695,1-(1.1.2.6-tetramethyl-3-propan-2-yl-2.3-dihydroinden-5-yl)ethanone,IMRYETFJNLKUHK-UHFFFAOYSA-N,CC1C(C2=C(C1(C)C)C=C(C(=C2)C(=O)C)C)C(C)C,068140-48-7,-5.68070845,CC(=O)c1cc2c(cc1C)C(C)(C)C(C)C2C(C)C
1970,B-6696,1-ethoxy-2.3-difluoro-4-(4-propylphenyl)benzene,RYPOSVPGRBGCKW-UHFFFAOYSA-N,CCCC1=CC=C(C=C1)C2=C(C(=C(C=C2)OCC)F)F,157248-24-3,-7.119201513,CCCc1ccc(-c2ccc(OCC)c(F)c2F)cc1
1971,B-6697,(3-pentyloxan-4-yl) acetate,VSRVCSJJKWDZSH-UHFFFAOYSA-N,CCCCCC1COCCC1OC(=O)C,018871-14-2,-2.998793862,CCCCCC1COCCC1OC(C)=O
1972,B-6699,2-Phenylethyl butanoate,WFNDDSQUKATKNX-UHFFFAOYSA-N,CCCC(=O)OCCC1=CC=CC=C1,000103-52-6,-2.219791683,CCCC(=O)OCCc1ccccc1
1973,B-6700,2-methylbutan-2-yl 2.2-dimethylpropaneperoxoate,AQKYLAIZOGOPAW-UHFFFAOYSA-N,CCC(C)(C)OOC(=O)C(C)(C)C,029240-17-3,-2.57234182,CCC(C)(C)OOC(=O)C(C)(C)C
1974,B-6701,3-Chloro-4-methylaniline,RQKFYFNZSHWXAW-UHFFFAOYSA-N,CC1=C(C=C(C=C1)N)Cl,000095-74-9,-1.727817073,Cc1ccc(N)cc1Cl
1975,B-6702,N-phenyl-4-(2.4.4-trimethylpentan-2-yl)aniline,OSFOTMWFXQGWKZ-UHFFFAOYSA-N,CC(C)(C)CC(C)(C)C1=CC=C(C=C1)NC2=CC=CC=C2,068921-45-9,-5.600581121,CC(C)(C)CC(C)(C)c1ccc(Nc2ccccc2)cc1
1976,B-6704,3-methyl-2-[(Z)-pent-2-enyl]cyclopent-2-en-1-one,XMLSXPIVAXONDL-PLNGDYQASA-N,CC/C=C\CC1=C(CCC1=O)C,000488-10-8,-2.045235202,CCC=CCC1=C(C)CCC1=O
1977,B-6705,2-ethoxyethyl ethyl carbonate,UIVHLJQMLWRKJZ-UHFFFAOYSA-N,CCOCCOC(=O)OCC,627034-93-9,-0.596169399,CCOCCOC(=O)OCC
1978,B-6706,(E)-2-methyl-3-phenylprop-2-enal,VLUMOWNVWOXZAU-VQHVLOKHSA-N,C/C(=C\C1=CC=CC=C1)/C=O,015174-47-7,-2.474716833,CC(C=O)=Cc1ccccc1
1979,B-6707,1.2-di(phenyl)indole,BRIKLJCDBBFRAE-UHFFFAOYSA-N,C1=CC=C(C=C1)C2=CC3=CC=CC=C3N2C4=CC=CC=C4,018880-36-9,0.171424908,c1ccc(-c2cc3ccccc3n2-c2ccccc2)cc1
1980,B-6708,3.7-dimethyloct-6-enyl (E)-2-methylbut-2-enoate,UCFQYMKLDPWFHZ-MKMNVTDBSA-N,C/C=C(\C)/C(=O)OCCC(C)CCC=C(C)C,024717-85-9,-5.791789409,CC=C(C)C(=O)OCCC(C)CCC=C(C)C
1981,B-6709,4-piperidin-4-ylmorpholine,YYBXNWIRMJXEQJ-UHFFFAOYSA-N,C1CNCCC1N2CCOCC2,053617-35-9,-2.902717721,C1CC(N2CCOCC2)CCN1
1982,B-6710,2-hydroxy-2-methyl-1-phenylpropan-1-one,XMLYCEVDHLAQEL-UHFFFAOYSA-N,CC(C)(C(=O)C1=CC=CC=C1)O,007473-98-5,-1.091531033,CC(C)(O)C(=O)c1ccccc1
1983,B-6711,4-Methyl-4-phenylpentan-2-one,PFDVPCSDZXZDMF-UHFFFAOYSA-N,CC(=O)CC(C)(C)C1=CC=CC=C1,007403-42-1,-2.337663326,CC(=O)CC(C)(C)c1ccccc1
1984,B-6712,tert-butyl 2-methylpropaneperoxoate,PFBLRDXPNUJYJM-UHFFFAOYSA-N,CC(C)C(=O)OOC(C)(C)C,000109-13-7,-1.607001482,CC(C)C(=O)OOC(C)(C)C
1985,B-6713,1-chloro-4-(prop-2-ynoxymethyl)benzene,VUJITVTVTWYDAK-UHFFFAOYSA-N,C#CCOCC1=CC=C(C=C1)Cl,004039-86-5,-2.997674038,C#CCOCc1ccc(Cl)cc1
1986,B-6714,6-methylheptyl 2-sulfanylacetate,RZBBHEJLECUBJT-UHFFFAOYSA-N,CC(C)CCCCCOC(=O)CS,025103-09-7,-4.285019468,CC(C)CCCCCOC(=O)CS
1987,B-6715,(4-chlorophenyl)-phenylmethanone,UGVRJVHOJNYEHR-UHFFFAOYSA-N,C1=CC=C(C=C1)C(=O)C2=CC=C(C=C2)Cl,000134-85-0,-4.019695558,O=C(c1ccccc1)c1ccc(Cl)cc1
1988,B-6716,phenylmethyl 2-methylprop-2-enoate,AOJOEFVRHOZDFN-UHFFFAOYSA-N,CC(=C)C(=O)OCC1=CC=CC=C1,002495-37-6,-2.968203555,C=C(C)C(=O)OCc1ccccc1
1989,B-6717,tert-butyl 2.2-dimethylpropaneperoxoate,OPQYOFWUFGEMRZ-UHFFFAOYSA-N,CC(C)(C)C(=O)OOC(C)(C)C,000927-07-1,-2.067960098,CC(C)(C)OOC(=O)C(C)(C)C
1990,B-6718,2-(1-propoxyethoxy)ethylbenzene,FMYCPRQGKSONCP-UHFFFAOYSA-N,CCCOC(C)OCCC1=CC=CC=C1,007493-57-4,-3.384190402,CCCOC(C)OCCc1ccccc1
1991,B-6719,2-propan-2-ylthioxanthen-9-one,KTALPKYXQZGAEG-UHFFFAOYSA-N,CC(C)C1=CC2=C(C=C1)SC3=CC=CC=C3C2=O,005495-84-1,-5.873945995,CC(C)c1ccc2sc3ccccc3c(=O)c2c1
1992,B-6720,(2-methylpropan-2-yl)oxy propan-2-yl carbonate,KDGNCLDCOVTOCS-UHFFFAOYSA-N,CC(C)OC(=O)OOC(C)(C)C,002372-21-6,-1.9036128,CC(C)OC(=O)OOC(C)(C)C
1993,B-6721,ethyl (Z)-4.4.4-trifluoro-3-(methylamino)but-2-enoate,NDCZMOSQVJGZCK-PLNGDYQASA-N,CCOC(=O)/C=C(/C(F)(F)F)\NC,507448-65-9,-3.016057939,CCOC(=O)C=C(NC)C(F)(F)F
1994,B-6722,3-(4-tert-butylphenyl)propanal,FZJUFJKVIYFBSY-UHFFFAOYSA-N,CC(C)(C)C1=CC=C(C=C1)CCC=O,018127-01-0,-3.15882971,CC(C)(C)c1ccc(CCC=O)cc1
1995,B-6723,4-HEPTYLPHENOL,KNDDEFBFJLKPFE-UHFFFAOYSA-N,CCCCCCCC1=CC=C(C=C1)O,072624-02-3,-3.659698092,CCCCCCCc1ccc(O)cc1
1996,B-6724,2-[(4-tert-butylphenoxy)methyl]oxirane,HHRACYLRBOUBKM-UHFFFAOYSA-N,CC(C)(C)C1=CC=C(C=C1)OCC2CO2,003101-60-8,-3.430236774,CC(C)(C)c1ccc(OCC2CO2)cc1
1997,B-6725,[(Z)-hex-3-enyl] (Z)-hex-3-enoate,UZJQQWFHPLYECS-SFECMWDFSA-N,CC/C=C\CCOC(=O)C/C=C\CC,061444-38-0,-4.509706829,CCC=CCCOC(=O)CC=CCC
1998,B-6726,Benzenesulfonyl chloride,CSKNSYBAZOQPLR-UHFFFAOYSA-N,C1=CC=C(C=C1)S(=O)(=O)Cl,000098-09-9,-1.885305405,O=S(=O)(Cl)c1ccccc1
1999,B-6727,(1-ethynylcyclohexyl) acetate,YASSLXHVJQGNOK-UHFFFAOYSA-N,CC(=O)OC1(CCCCC1)C#C,005240-32-4,-2.352215179,C#CC1(OC(C)=O)CCCCC1
2000,B-6728,N-ethyl-N-(phenylmethyl)aniline,HSZCJVZRHXPCIA-UHFFFAOYSA-N,CCN(CC1=CC=CC=C1)C2=CC=CC=C2,000092-59-1,-4.670446495,CCN(Cc1ccccc1)c1ccccc1
2001,B-6729,8-propan-2-yl-1.5-benzodioxepin-3-one,RFSYHLFFESXTQI-UHFFFAOYSA-N,CC(C)C1=CC2=C(C=C1)OCC(=O)CO2,950919-28-5,-1.906134619,CC(C)c1ccc2c(c1)OCC(=O)CO2
2002,B-6730,4-methyl-2H-benzotriazole,CMGDVUCDZOBDNL-UHFFFAOYSA-N,CC1=CC=CC2=NNN=C12,029385-43-1,-1.51695832,Cc1cccc2n[nH]nc12
2003,B-6731,N.N-Dimethyloctanamide,VHRUBWHAOUIMDW-UHFFFAOYSA-N,CCCCCCCC(=O)N(C)C,001118-92-9,-1.60024327,CCCCCCCC(=O)N(C)C
2004,B-6732,tert-butyl 2-ethylhexaneperoxoate,WYKYCHHWIJXDAO-UHFFFAOYSA-N,CCCCC(CC)C(=O)OOC(C)(C)C,003006-82-4,-3.669515282,CCCCC(CC)C(=O)OOC(C)(C)C
2005,B-6733,1-(5.5-dimethyl-1-cyclohexenyl)pent-4-en-1-one,OEVIJAZJVZDBQL-UHFFFAOYSA-N,CC1(CCC=C(C1)C(=O)CCC=C)C,056973-85-4,-3.534243872,C=CCCC(=O)C1=CCCC(C)(C)C1
2006,B-6734,Phenyl acetate,IPBVNPXQWQGGJP-UHFFFAOYSA-N,CC(=O)OC1=CC=CC=C1,000122-79-2,-1.373595162,CC(=O)Oc1ccccc1
2007,B-6735,1-ethenylsulfanylethanol,XBSXOHLQFBHTPM-UHFFFAOYSA-N,CC(O)SC=C,003090-56-0,0.005523971,C=CSC(C)O
2008,B-6736,1.2-Diethoxybenzene,QZYDOKBVZJLQCK-UHFFFAOYSA-N,CCOC1=CC=CC=C1OCC,002050-46-6,-2.410449192,CCOc1ccccc1OCC
2009,B-6737,(2E.6E)-3.7-dimethylnona-2.6-dienenitrile,DHJVLXVXNFUSMU-NSJFVGFPSA-N,CC/C(=C/CC/C(=C/C#N)/C)/C,061792-11-8,-3.589630502,CCC(C)=CCCC(C)=CC#N
2010,B-6738,4-(3.4.5-trimethylheptyl)phenol,AOOKHLGAVNECET-UHFFFAOYSA-N,CCC(C)C(C)C(C)CCC1=CC=C(C=C1)O,121158-58-5,-5.182401311,CCC(C)C(C)C(C)CCc1ccc(O)cc1
2011,B-6739,1-naphthalen-1-ylethanone,QQLIGMASAVJVON-UHFFFAOYSA-N,CC(=O)C1=CC=CC2=CC=CC=C21,000941-98-0,-3.288149947,CC(=O)c1cccc2ccccc12
2012,B-6740,N.N-DIBUTYLFORMAMIDE,NZMAJUHVSZBJHL-UHFFFAOYSA-N,CCCCN(CCCC)C=O,000761-65-9,-1.124723008,CCCCN(C=O)CCCC
2013,B-6741,5-Isocyanato-1-(isocyanatomethyl)-1.3.3-trimethylcyclohexane,NIMLQBUJDJZYEJ-UHFFFAOYSA-N,CC1(CC(CC(C1)(C)CN=C=O)N=C=O)C,004098-71-9,-4.170821633,CC1(C)CC(N=C=O)CC(C)(CN=C=O)C1
2014,B-6742,(3R)-3.7-dimethyloct-6-enenitrile,MTDAKBBUYMYKAR-SNVBAGLBSA-N,C[C@H](CCC=C(C)C)CC#N,035931-93-2,-3.118997543,CC(C)=CCCC(C)CC#N
2015,B-6743,3-Chloro-2-methylaniline,ZUVPLKVDZNDZCM-UHFFFAOYSA-N,CC1=C(C=CC=C1Cl)N,000087-60-5,-2.151062947,Cc1c(N)cccc1Cl
2016,B-6744,1-(2.4.6-trichlorophenyl)propan-2-one,SSGBVBPQZPYPSM-UHFFFAOYSA-N,CC(=O)CC1=C(C=C(C=C1Cl)Cl)Cl,1228284-86-3,-3.590357002,CC(=O)Cc1c(Cl)cc(Cl)cc1Cl
2017,B-6745,5-Chloro-2-methylaniline,WRZOMWDJOLIVQP-UHFFFAOYSA-N,CC1=C(C=C(C=C1)Cl)N,000095-79-4,-2.071881701,Cc1ccc(Cl)cc1N
2018,B-6746,(E)-4-methyl-5-(4-methylphenyl)pent-4-enal,LBKHGAIELUNYML-ZRDIBKRKSA-N,CC1=CC=C(C=C1)/C=C(\C)/CCC=O,1226911-69-8,-3.567208178,CC(=Cc1ccc(C)cc1)CCC=O
2019,B-6747,4-(2.4.4-trimethylpentan-2-yl)phenol,ISAVYTVYFVQUDY-UHFFFAOYSA-N,CC(C)(C)CC(C)(C)C1=CC=C(C=C1)O,000140-66-9,-4.469458445,CC(C)(C)CC(C)(C)c1ccc(O)cc1
2020,B-6748,4-(1-ethoxyethenyl)-3.3.5.5-tetramethylcyclohexan-1-one,YLNYLLVKHRZLGO-UHFFFAOYSA-N,CCOC(=C)C1C(CC(=O)CC1(C)C)(C)C,036306-87-3,-3.643341186,C=C(OCC)C1C(C)(C)CC(=O)CC1(C)C
2021,B-6749,2-Phenylaniline,TWBPWBPGNQWFSJ-UHFFFAOYSA-N,C1=CC=C(C=C1)C2=CC=CC=C2N,000090-41-5,-2.861110142,Nc1ccccc1-c1ccccc1
2022,B-6750,(4-bromophenyl) acetate,XEXHCQJRVMVJMY-UHFFFAOYSA-N,CC(=O)OC1=CC=C(C=C1)Br,001927-95-3,-2.416604359,CC(=O)Oc1ccc(Br)cc1
2023,B-6751,4-Methyl-4-phenylpentan-2-ol,NCYQVRNLBAYSLE-UHFFFAOYSA-N,CC(CC(C)(C)C1=CC=CC=C1)O,002035-93-0,-2.147283314,CC(O)CC(C)(C)c1ccccc1
2024,B-6752,hex-3-enyl benzoate,BCOXBEHFBZOJJZ-UHFFFAOYSA-N,CCC=CCCOC(=O)C1=CC=CC=C1,025152-85-6,-3.704895716,CCC=CCCOC(=O)c1ccccc1
2025,B-6753,octadecyl 3-sulfanylpropanoate,UCUPUEARJPTGKU-UHFFFAOYSA-N,CCCCCCCCCCCCCCCCCCOC(=O)CCS,031778-15-1,-1.941852587,CCCCCCCCCCCCCCCCCCOC(=O)CCS
2026,B-6754,(3.3.5-trimethylcyclohexyl) 2-hydroxybenzoate,WSSJONWNBBTCMG-UHFFFAOYSA-N,CC1CC(CC(C1)(C)C)OC(=O)C2=CC=CC=C2O,000118-56-9,-5.816817766,CC1CC(OC(=O)c2ccccc2O)CC(C)(C)C1
2027,B-6755,pentyl 2-phenylacetate,LRVLBFSVAFUOGO-UHFFFAOYSA-N,CCCCCOC(=O)CC1=CC=CC=C1,005137-52-0,-2.593611925,CCCCCOC(=O)Cc1ccccc1
2028,B-6756,5-bromo-1H-pyrrolo[2.3-b]pyridine,LPTVWZSQAIDCEB-UHFFFAOYSA-N,C1=CNC2=NC=C(C=C21)Br,183208-35-7,-3.57438165,Brc1cnc2[nH]ccc2c1
2029,B-6757,Phenylmethyl butanoate,VONGZNXBKCOUHB-UHFFFAOYSA-N,CCCC(=O)OCC1=CC=CC=C1,000103-37-7,-3.117442873,CCCC(=O)OCc1ccccc1
2030,B-6758,2-benzyl-2-methylbut-3-enenitrile,UKLOORXNVRHFRM-UHFFFAOYSA-N,CC(CC1=CC=CC=C1)(C=C)C#N,097384-48-0,-2.99056717,C=CC(C)(C#N)Cc1ccccc1
2031,B-6759,ethyl 2-methyl-2-phenylpropanoate,OFYSAFPKXXTYLU-UHFFFAOYSA-N,CCOC(=O)C(C)(C)C1=CC=CC=C1,002901-13-5,-3.04583651,CCOC(=O)C(C)(C)c1ccccc1
2032,B-6760,3H-1-benzofuran-2-one,ACZGCWSMSTYWDQ-UHFFFAOYSA-N,C1C2=CC=CC=C2OC1=O,000553-86-6,-1.547755927,O=C1Cc2ccccc2O1
2033,B-6762,trimethoxy-octylsilane,NMEPHPOFYLLFTK-UHFFFAOYSA-N,CCCCCCCC[Si](OC)(OC)OC,003069-40-7,-4.246125606,CCCCCCCC[Si](OC)(OC)OC
2034,B-6763,2-cyclohexylideneacetic acid,UKYISVNNIPKTNG-UHFFFAOYSA-N,C1CCC(=CC(=O)O)CC1,015793-73-4,-7.602622968,O=C(O)C=C1CCCCC1
2035,B-6764,3.5-Dimethylaniline,MKARNSWMMBGSHX-UHFFFAOYSA-N,CC1=CC(=CC(=C1)N)C,000108-69-0,-1.402195445,Cc1cc(C)cc(N)c1
2036,B-6765,8-methyl-1.5-benzodioxepin-3-one,SWUIQEBPZIHZQS-UHFFFAOYSA-N,CC1=CC2=C(C=C1)OCC(=O)CO2,028940-11-6,-1.114155936,Cc1ccc2c(c1)OCC(=O)CO2
2037,B-6766,1-(4-chlorophenyl)-2-methylbut-3-en-1-ol,UUZUQJOJASRJBK-UHFFFAOYSA-N,CC(C=C)C(C1=CC=C(C=C1)Cl)O,123989-31-1,-2.561357828,C=CC(C)C(O)c1ccc(Cl)cc1
2038,B-6767,hexacyclo[14.6.2.02.11.04.9.013.23.020.24]tetracosa-1(23).2.4.6.8.10.12.14.16(24).17.19.21-dodecaene,AXSJLZJXXUBRBS-UHFFFAOYSA-N,C1=CC=C2C=C3C4=C5C(=CC3=CC2=C1)C=CC6=C5C(=CC=C6)C=C4,000382-28-5,-5.600876101,c1ccc2cc3c(cc2c1)cc1ccc2cccc4ccc3c1c24
2039,B-6768,2-Phenylethyl 2-methylpropanoate,JDQVBGQWADMTAM-UHFFFAOYSA-N,CC(C)C(=O)OCCC1=CC=CC=C1,000103-48-0,-3.07976263,CC(C)C(=O)OCCc1ccccc1
2040,B-6769,2-Methoxy-5-methylaniline,WXWCDTXEKCVRRO-UHFFFAOYSA-N,CC1=CC(=C(C=C1)OC)N,000120-71-8,-1.66017271,COc1ccc(C)cc1N
2041,B-6771,2-methylpropyl 2-phenylacetate,RJASFPFZACBKBE-UHFFFAOYSA-N,CC(C)COC(=O)CC1=CC=CC=C1,000102-13-6,-3.271045388,CC(C)COC(=O)Cc1ccccc1
2042,B-6772,1-isocyanato-4-(4-isocyanato-3-methylphenyl)-2-methylbenzene,ICLCCFKUSALICQ-UHFFFAOYSA-N,CC1=C(C=CC(=C1)C2=CC(=C(C=C2)N=C=O)C)N=C=O,000091-97-4,-2.308125876,Cc1cc(-c2ccc(N=C=O)c(C)c2)ccc1N=C=O
2043,B-6773,N.N-Bis(2-methylpropyl)formamide,NTYICSDTCGMBQM-UHFFFAOYSA-N,CC(C)CN(CC(C)C)C=O,002591-76-6,-1.082661663,CC(C)CN(C=O)CC(C)C
2044,B-6774,(E)-3-phenylprop-2-en-1-ol,OOCCDEMITAIZTP-QPJJXVBHSA-N,C1=CC=C(C=C1)/C=C/CO,000104-54-1,-1.722452575,OCC=Cc1ccccc1
2045,B-6775,2-methylpropyl 2-hydroxypropanoate,WBPAQKQBUKYCJS-UHFFFAOYSA-N,CC(C)COC(=O)C(C)O,061597-96-4,-0.48638681,CC(C)COC(=O)C(C)O