,C_ID,Name,InChIKey,SMILES,CAS,LogS,smiles_canon
4537,B-9941,2-[(3.4-dichlorophenyl)hydrazinylidene]propanedinitrile,GTVGGHQLKNCAMB-UHFFFAOYSA-N,N#CC(=NNC1CCC(C(C1)Cl)Cl)C#N,003720-55-6,-4.185380518,N#CC(C#N)=NNC1CCC(Cl)C(Cl)C1
4538,B-9942,11-(3-dimethylaminopropyl)-6H-benzo[c][1]benzoxepin-11-ol,ZEKLFUWSVQYTOO-UHFFFAOYSA-N,CN(CCCC1(O)C2CCCCC2OCC2C1CCCC2)C,004504-88-5,-4.352764127,CN(C)CCCC1(O)C2CCCCC2COC2CCCCC21
4539,B-9943,4-methoxy-7-methylpyrano[3.2-f][1]benzoxol-5-one,NZVQLVGOZRELTG-UHFFFAOYSA-N,COC1C2C(=O)CC(OC2CC2C1CCO2)C,000082-57-5,-3.93061656,COC1C2CCOC2CC2OC(C)CC(=O)C21
4540,B-9944,(E)-3-(4-butoxyphenyl)-N-hydroxyprop-2-enamide,LPJNJBLMADVVOB-RMKNXTFCSA-N,CCCCOC1CCC(CC1)/C=C/C(=O)NO,026227-46-3,-3.296043588,CCCCOC1CCC(C=CC(=O)NO)CC1
4541,B-9946,ethyl 2-[2-hydroxy-3-(prop-2-ynylamino)propoxy]-6-methyl-3-propan-2-ylbenzoate,HFPQJHKCHYRJOJ-UHFFFAOYSA-N,CCOC(=O)C1C(C)CCC(C1OCC(CNCC#C)O)C(C)C,053251-80-2,-3.230746009,C#CCNCC(O)COC1C(C(C)C)CCC(C)C1C(=O)OCC
4542,B-9947,3.5-Dichloro-4-hydroxybenzoic acid,AULKDLUOQCUNOK-UHFFFAOYSA-N,OC(=O)C1CC(Cl)C(C(C1)Cl)O,003336-41-2,-2.422221171,O=C(O)C1CC(Cl)C(O)C(Cl)C1
4543,B-9950,2-[2-chloro-5-(trifluoromethyl)phenyl]-3a.4.5.6.7.7a-hexahydro-4.7-epoxyisoindole-1.3-dione,RKISHCUVRHHCRT-UHFFFAOYSA-N,FC(C1CCC(C(C1)N1C(=O)C2C(C1=O)C1OC2CC1)Cl)(F)F,017183-07-2,-2.525864667,O=C1C2C3CCC(O3)C2C(=O)N1C1CC(C(F)(F)F)CCC1Cl
4544,B-9951,(4-chlorophenyl) diethyl phosphate,LBGVKIMCKGXEEF-UHFFFAOYSA-N,CCOP(=O)(OC1CCC(CC1)Cl)OCC,005076-63-1,-3.515247409,CCOP(=O)(OCC)OC1CCC(Cl)CC1
4545,B-9953,(2S)-2-(3-fluoro-4-phenylphenyl)propanoic acid,SYTBZMRGLBWNTM-JTQLQIEISA-N,OC(=O)[C@H](C1CCC(C(C1)F)C1CCCCC1)C,051543-39-6,-4.4899998,CC(C(=O)O)C1CCC(C2CCCCC2)C(F)C1
4546,B-9954,2-(2-diethylaminoethoxy)-N-phenylbenzamide,BOFYHBVFGWJLIZ-UHFFFAOYSA-N,CCN(CCOC1CCCCC1C(=O)NC1CCCCC1)CC,006376-26-7,-4.433276604,CCN(CC)CCOC1CCCCC1C(=O)NC1CCCCC1
4547,B-9955,8-chloro-10-(3-dimethylaminopropyl)-1-methoxyphenothiazin-3-ol,NQBIIZCLITWWOH-UHFFFAOYSA-N,COC1CC(O)CC2C1N(CCCN(C)C)C1C(S2)CCC(C1)Cl,063834-01-5,-5.766279564,COC1CC(O)CC2SC3CCC(Cl)CC3N(CCCN(C)C)C12
4548,B-9956,2-(1-hydroxy-4-phenylcyclohexyl)butanoic acid,HPLFQKUIHGZHPH-UHFFFAOYSA-N,CCC(C1(O)CCC(CC1)C1CCCCC1)C(=O)O,005977-10-6,-4.003739061,CCC(C(=O)O)C1(O)CCC(C2CCCCC2)CC1
4549,B-9957,6-BROMO-7H-PURINE,CTGFGRDVWBZYNB-UHFFFAOYSA-N,BrC1NCNC2C1[NH]CN2,000767-69-1,-2.024719233,BrC1NCNC2NCNC12
4550,B-9958,(E)-3-(2-chlorophenyl)prop-2-enoic acid,KJRRTHHNKJBVBO-AATRIKPKSA-N,OC(=O)/C=C/C1CCCCC1Cl,003752-25-8,-2.457368476,O=C(O)C=CC1CCCCC1Cl
4551,B-9960,2-[4-[3-[2-(trifluoromethyl)phenothiazin-10-yl]propyl]piperazin-1-yl]ethyl heptanoate,LRWSFOSWNAQHHW-UHFFFAOYSA-N,CCCCCCC(=O)OCCN1CCN(CC1)CCCN1C2CCCCC2SC2C1CC(CC2)C(F)(F)F,002746-81-8,-9.794157923,CCCCCCC(=O)OCCN1CCN(CCCN2C3CCCCC3SC3CCC(C(F)(F)F)CC32)CC1
4552,B-9961,4-methyl-2H-1.2.4-triazole-3-thione,AGWWTUWTOBEQFE-UHFFFAOYSA-N,CN1CN[NH]C1=S,024854-43-1,-1.649659322,CN1CNNC1=S
4553,B-9963,(8-methyl-8-azabicyclo[3.2.1]octan-3-yl) 3-hydroxy-2-(4-methylphenyl)propanoate,XFKXNUIIWKUVFV-UHFFFAOYSA-N,OCC(C1CCC(CC1)C)C(=O)OC1CC2CCC(C1)N2C,063978-26-7,-2.501560561,CC1CCC(C(CO)C(=O)OC2CC3CCC(C2)N3C)CC1
4554,B-9964,5.11-dihydrobenzo[b][1.4]benzodiazepine-6-thione,SZTCVSWEXLJTPD-UHFFFAOYSA-N,S=C1[NH]C2CCCCC2[NH]C2C1CCCC2,032047-76-0,-4.073645429,S=C1NC2CCCCC2NC2CCCCC12
4555,B-9966,3-(3-ethylphenoxy)propane-1.2-diol,JCLWQYMAWWJMSX-UHFFFAOYSA-N,OCC(COC1CCCC(C1)CC)O,064049-52-1,-2.251408128,CCC1CCCC(OCC(O)CO)C1
4556,B-9968,(2-amino-5-nitrophenyl)-phenylmethanone,PZPZDEIASIKHPY-UHFFFAOYSA-N,NC1CCC(CC1C(=O)C1CCCCC1)[N+](=O)[O-],001775-95-7,-3.90422814,NC1CCC([N+](=O)[O-])CC1C(=O)C1CCCCC1
4557,B-9969,2-(2-methylphenyl)-3a.4.5.6.7.7a-hexahydro-4.7-epoxyisoindole-1.3-dione,WPFYQSJKOJNEMK-UHFFFAOYSA-N,O=C1C2C3CCC(C2C(=O)N1C1CCCCC1C)O3,020711-78-8,-0.977451928,CC1CCCCC1N1C(=O)C2C3CCC(O3)C2C1=O
4558,B-9970,5-nitro-1.3-benzoxazol-2-amine,QHVCONQZXJPGQZ-UHFFFAOYSA-N,NC1OC2C(N1)CC(CC2)[N+](=O)[O-],064037-16-7,-1.954327347,NC1NC2CC([N+](=O)[O-])CCC2O1
4559,B-9971,2.6-ditert-butyl-4-[2-(3.5-ditert-butyl-4-hydroxyphenyl)sulfanylpropan-2-ylsulfanyl]phenol,FYPMFJGVHOHGLL-UHFFFAOYSA-N,CC(SC1CC(C(C(C1)C(C)(C)C)O)C(C)(C)C)(SC1CC(C(C(C1)C(C)(C)C)O)C(C)(C)C)C,023288-49-5,-11.36117528,CC(C)(SC1CC(C(C)(C)C)C(O)C(C(C)(C)C)C1)SC1CC(C(C)(C)C)C(O)C(C(C)(C)C)C1
4560,B-9973,methyl 6-methyl-2-[2-oxo-2-(2-piperidin-1-ylethoxy)ethoxy]-3-propan-2-ylbenzoate,ZOXROYAHTWXWDS-UHFFFAOYSA-N,COC(=O)C1C(C)CCC(C1OCC(=O)OCCN1CCCCC1)C(C)C,052073-11-7,-4.796577773,COC(=O)C1C(C)CCC(C(C)C)C1OCC(=O)OCCN1CCCCC1
4561,B-9974,5.5-di(phenyl)imidazolidin-4-one,FEJIIZAOQRTGPC-UHFFFAOYSA-N,O=C1NCNC1(C1CCCCC1)C1CCCCC1,003254-93-1,-2.852579862,O=C1NCNC1(C1CCCCC1)C1CCCCC1
4562,B-9975,4-(2-dimethylamino-1-hydroxyethyl)benzene-1.2-diol,RLATYNCITHOLTJ-UHFFFAOYSA-N,CN(CC(C1CCC(C(C1)O)O)O)C,000554-99-4,0.70501824,CN(C)CC(O)C1CCC(O)C(O)C1
4563,B-9977,N.N-diethyl-2-hydroxy-3-phenylbenzamide,XQTMNRKZPMKUHJ-UHFFFAOYSA-N,CCN(C(=O)C1CCCC(C1O)C1CCCCC1)CC,063992-45-0,-3.806025194,CCN(CC)C(=O)C1CCCC(C2CCCCC2)C1O
4564,B-9978,5-(3-diethylaminopropyl)-11H-benzo[b][1.4]benzodiazepin-6-one,OJTXPGCWXBTARX-UHFFFAOYSA-N,CCN(CCCN1C(=O)C2CCCCC2[NH]C2C1CCCC2)CC,004231-97-4,-5.684367611,CCN(CC)CCCN1C(=O)C2CCCCC2NC2CCCCC21
4565,B-9979,N-Acetyl-2-hydroxybenzamide,JZWFDVDETGFGFC-UHFFFAOYSA-N,CC(=O)NC(=O)C1CCCCC1O,000487-48-9,-0.978427093,CC(=O)NC(=O)C1CCCCC1O
4566,B-9980,4-Bromo-N-ethylbenzenesulfonamide,CEPUEFFXFOOTDZ-UHFFFAOYSA-N,CCNS(=O)(=O)C1CCC(CC1)Br,001984-25-4,-3.020428684,CCNS(=O)(=O)C1CCC(Br)CC1
4567,B-9981,5.6-dihydrobenzo[b][1]benzazepine-11-carboxamide,PHNLCHMJDSSPDQ-UHFFFAOYSA-N,NC(=O)N1C2CCCCC2CCC2C1CCCC2,003564-73-6,-4.151796517,NC(=O)N1C2CCCCC2CCC2CCCCC21
4568,B-9982,1-[3-[(E)-4-phenylbut-3-enyl]-3.8-diazabicyclo[3.2.1]octan-8-yl]propan-1-one,DJEUWFADFGMDAH-UXBLZVDNSA-N,CCC(=O)N1C2CCC1CN(C2)CC/C=C/C1CCCCC1,063977-93-5,-4.178177274,CCC(=O)N1C2CCC1CN(CCC=CC1CCCCC1)C2
4569,B-9983,3-furan-2-yl-2-(2-methylnaphthalen-1-yl)propanoic acid,GEOODLRPOTYCMR-UHFFFAOYSA-N,OC(=O)C(C1C(C)CCC2C1CCCC2)CC1CCCO1,003459-58-3,-4.818249133,CC1CCC2CCCCC2C1C(CC1CCCO1)C(=O)O
4570,B-9984,3-[(4-methylphenyl)methoxy]propane-1.2-diol,VAUHVOUAJDOEOR-UHFFFAOYSA-N,OCC(COCC1CCC(CC1)C)O,064049-45-2,-1.578471054,CC1CCC(COCC(O)CO)CC1
4571,B-9985,6-Hydroxy-2.5.7.8-tetramethylchroman-2-carboxylic acid,GLEVLJDDWXEYCO-UHFFFAOYSA-N,CC1C2OC(C)(CCC2C(C(C1C)O)C)C(=O)O,053188-07-1,-3.07830417,CC1C(C)C2OC(C)(C(=O)O)CCC2C(C)C1O
4572,B-9986,2-[2-(4-fluorophenyl)-2-oxoethyl]benzoic acid,BDNMWBHSKATDFB-UHFFFAOYSA-N,FC1CCC(CC1)C(=O)CC1CCCCC1C(=O)O,054955-29-2,-3.749279118,O=C(CC1CCCCC1C(=O)O)C1CCC(F)CC1
4573,B-9988,ethyl 2-(2-methyl-5-nitroimidazol-1-yl)acetate,CKGGIKOPFUMXET-UHFFFAOYSA-N,CCOC(=O)CN1C(C)NCC1[N+](=O)[O-],001016-40-6,-2.00243706,CCOC(=O)CN1C(C)NCC1[N+](=O)[O-]
4574,B-9990,8-ethyl-1.3-dimethyl-7H-purine-2.6-dione,KTJSVELYMZTQJB-UHFFFAOYSA-N,CCC1[NH]C2C(N1)N(C)C(=O)N(C2=O)C,005770-28-5,-1.273201528,CCC1NC2C(=O)N(C)C(=O)N(C)C2N1
4575,B-9991,N'-(6-chloro-2-methoxyacridin-9-yl)-N.N-diethylpentane-1.4-diamine,GPKJTRJOBQGKQK-UHFFFAOYSA-N,CCN(CCCC(NC1C2CC(OC)CCC2NC2C1CCC(C2)Cl)C)CC,000083-89-6,-2.639990214,CCN(CC)CCCC(C)NC1C2CCC(Cl)CC2NC2CCC(OC)CC21
4576,B-9993,3-(2-butoxyphenoxy)propane-1.2-diol,YJWTWVLTCKLKJR-UHFFFAOYSA-N,CCCCOC1CCCCC1OCC(CO)O,063834-61-7,-2.573216935,CCCCOC1CCCCC1OCC(O)CO
4577,B-9994,4-phenyl-2H-pyrazol-3-amine,QEHKQNYBBLCFIJ-UHFFFAOYSA-N,NC1[NH]NCC1C1CCCCC1,005591-70-8,-1.13746325,NC1NNCC1C1CCCCC1
4578,B-9995,3-(4-phenylpiperazin-1-yl)propane-1.2-diol,PTVWPYVOOKLBCG-UHFFFAOYSA-N,OCC(CN1CCN(CC1)C1CCCCC1)O,117067-01-3,-0.082344527,OCC(O)CN1CCN(C2CCCCC2)CC1
4579,B-9997,2-[4-[3.3.3-tri(phenyl)propyl]piperazin-1-yl]pyrimidine,LSVAHJRFSZHOBF-UHFFFAOYSA-N,C1CCC(CC1)C(C1CCCCC1)(C1CCCCC1)CCN1CCN(CC1)C1NCCCN1,020980-06-7,-6.51750281,C1CCC(C(CCN2CCN(C3NCCCN3)CC2)(C2CCCCC2)C2CCCCC2)CC1
4580,B-9998,2-[(1R.6R)-3-methyl-6-prop-1-en-2-yl-1-cyclohex-2-enyl]-5-pentylbenzene-1.3-diol,QHMBSVQNZZTUGM-ZWKOTPCHSA-N,CCCCCC1CC(O)C(C(C1)O)[C@@H]1C=C(C)CC[C@H]1C(=C)C,013956-29-1,-7.412287265,C=C(C)C1CCC(C)=CC1C1C(O)CC(CCCCC)CC1O
4581,B-9999,(3R.4S)-3-chloro-4-(chloromethyl)-1-[3-(trifluoromethyl)phenyl]pyrrolidin-2-one,OQZCSNDVOWYALR-GMSGAONNSA-N,ClC[C@@H]1CN(C(=O)[C@@H]1Cl)C1CCCC(C1)C(F)(F)F,061213-59-0,-4.0500002,O=C1C(Cl)C(CCl)CN1C1CCCC(C(F)(F)F)C1
4582,B-10000,9.10-dihydrophenanthrene-2-carboxylic acid,KDKMJRJRONOCSH-UHFFFAOYSA-N,OC(=O)C1CCC2C(C1)CCC1C2CCCC1,064057-62-1,-5.892867984,O=C(O)C1CCC2C(CCC3CCCCC32)C1
4583,B-10002,4-[(Z)-4-(4-hydroxyphenyl)hex-3-en-3-yl]phenol,RGLYKWWBQGJZGM-ZCXUNETKSA-N,CC/C(=C(/C1CCC(CC1)O)\CC)/C1CCC(CC1)O,022610-99-7,-4.0700002,CCC(=C(CC)C1CCC(O)CC1)C1CCC(O)CC1
4584,B-10004,(6aS)-1.2.10-trimethoxy-5.6.6a.7-tetrahydro-4H-dibenzo[de.g]quinolin-9-ol,GVVXPMORGFYVOO-ZDUSSCGKSA-N,COC1C(OC)CC2C3C1C1CC(OC)C(CC1C[C@@H]3NCC2)O,000128-76-7,-3.841846863,COC1CC2C(CC1O)CC1NCCC3CC(OC)C(OC)C2C31
4585,B-10005,1-[8-[(E)-3-(4-ethoxyphenyl)prop-2-enyl]-3.8-diazabicyclo[3.2.1]octan-3-yl]propan-1-one,IZHBNGWJQRGLSY-AATRIKPKSA-N,CCOC1CCC(CC1)/C=C/CN1C2CCC1CN(C2)C(=O)CC,063977-70-8,-4.463398743,CCOC1CCC(C=CCN2C3CCC2CN(C(=O)CC)C3)CC1
4586,B-10006,[4-(bis(2-bromoethyl)amino)phenyl] 4-(trifluoromethyl)benzoate,JJWKNGOUNQRAIP-UHFFFAOYSA-N,BrCCN(C1CCC(CC1)OC(=O)C1CCC(CC1)C(F)(F)F)CCBr,022953-42-0,-7.808232007,O=C(OC1CCC(N(CCBr)CCBr)CC1)C1CCC(C(F)(F)F)CC1
4587,B-10007,methyl 2-(2-hydroxy-3-morpholin-4-ylpropoxy)-6-methyl-3-propan-2-ylbenzoate,XMGWVESVLPTSKA-UHFFFAOYSA-N,COC(=O)C1C(C)CCC(C1OCC(CN1CCOCC1)O)C(C)C,053206-84-1,-2.914411116,COC(=O)C1C(C)CCC(C(C)C)C1OCC(O)CN1CCOCC1
4588,B-10008,(1-ethylpiperidin-3-yl) N-(4-cyanophenyl)carbamate,IGPQBGUKWXQYCV-UHFFFAOYSA-N,CCN1CCCC(C1)OC(=O)NC1CCC(CC1)C#N,033592-97-1,-3.326107124,CCN1CCCC(OC(=O)NC2CCC(C#N)CC2)C1
4589,B-10010,[4-[bis(2-chloroethyl)amino]phenyl] 3-bromobenzoate,SUZZKNCPUCQBBP-UHFFFAOYSA-N,ClCCN(C1CCC(CC1)OC(=O)C1CCCC(C1)Br)CCCl,022953-52-2,-7.025872617,O=C(OC1CCC(N(CCCl)CCCl)CC1)C1CCCC(Br)C1
4590,B-10011,[4-(bis(2-bromoethyl)amino)phenyl] 4-chlorobenzoate,AVCQZLIKYAQLME-UHFFFAOYSA-N,BrCCN(C1CCC(CC1)OC(=O)C1CCC(CC1)Cl)CCBr,022954-18-3,-7.291333091,O=C(OC1CCC(N(CCBr)CCBr)CC1)C1CCC(Cl)CC1
4591,B-10013,6-iodo-7H-purine,NIBFSSALYRLHPY-UHFFFAOYSA-N,IC1NCNC2C1[NH]CN2,002545-26-8,-2.909511898,IC1NCNC2NCNC12
4592,B-10015,(ethyl-phenylphosphoryl)benzene,AKTGKEBIBGSCLD-UHFFFAOYSA-N,CCP(=O)(C1CCCCC1)C1CCCCC1,001733-57-9,-2.905827928,CCP(=O)(C1CCCCC1)C1CCCCC1
4593,B-10016,(8-methyl-8-azabicyclo[3.2.1]octan-3-yl) 2-(4-bromophenyl)-3-hydroxypropanoate,HMXQSWAWRXDIOX-UHFFFAOYSA-N,OCC(C1CCC(CC1)Br)C(=O)OC1CC2CCC(C1)N2C,063978-22-3,-3.267314445,CN1C2CCC1CC(OC(=O)C(CO)C1CCC(Br)CC1)C2
4594,B-10017,(1S.12S.13R)-24-methyl-5.7.18.20-tetraoxa-24-azahexacyclo[11.11.0.02.10.04.8.014.22.017.21]tetracosa-2.4(8).9.14(22).15.17(21)-hexaen-12-ol,GHKISGDRQRSCII-ZOCIIQOWSA-N,CN1CC2C([C@@H]3[C@H]1C1CC4OCOC4CC1C[C@@H]3O)CCC1C2OCO1,000476-32-4,-3.390173786,CN1CC2C(CCC3OCOC32)C2C(O)CC3CC4OCOC4CC3C21
4595,B-10020,1.3-Benzodioxole-5-carboxylic acid,VDVJGIYXDVPQLP-UHFFFAOYSA-N,OC(=O)C1CCC2C(C1)OCO2,000094-53-1,-2.666327712,O=C(O)C1CCC2OCOC2C1
4596,B-10021,(Z)-N-ethyl-2-methyl-3-phenylbut-2-enamide,UYLXIECXAARLRA-KHPPLWFESA-N,CCNC(=O)/C(=C(\C1CCCCC1)/C)/C,056604-95-6,-3.137843619,CCNC(=O)C(C)=C(C)C1CCCCC1
4597,B-10022,2.6-dichloropyridine-4-carbohydrazide,QZTMHCLQBRFNOF-UHFFFAOYSA-N,NNC(=O)C1CC(Cl)NC(C1)Cl,057803-51-7,-1.109802048,NNC(=O)C1CC(Cl)NC(Cl)C1
4598,B-10023,spiro[1.3-oxazolidine-5.2&apos-tricyclo[9.4.0.03.8]pentadeca-1(15).3.5.7.11.13-hexaene]-2.4-dione,SYARWWXCNNFEHU-UHFFFAOYSA-N,O=C1NC(=O)C2(O1)C1CCCCC1CCC1C2CCCC1,064036-60-8,-5.416679399,O=C1NC(=O)C2(O1)C1CCCCC1CCC1CCCCC12
4599,B-10024,2-(2-chloroethyl)-2.3-dihydro-1.3-benzoxazin-4-one,YEKMWXFHPZBZLR-UHFFFAOYSA-N,ClCCC1NC(=O)C2C(O1)CCCC2,000132-89-8,-3.387138325,O=C1NC(CCCl)OC2CCCCC12
4600,B-10025,4-methyl-5-phenyl-2H-1.2.4-triazole-3-thione,XGLHJEZLNGXEAZ-UHFFFAOYSA-N,CN1C(=S)[NH]NC1C1CCCCC1,038942-51-7,-2.510753974,CN1C(=S)NNC1C1CCCCC1
4601,B-10026,7-(2-tricyclo[9.4.0.03.8]pentadeca-1(15).3.5.7.11.13-hexaenylamino)heptanoic acid,ONNOFKFOZAJDHT-UHFFFAOYSA-N,OC(=O)CCCCCCNC1C2CCCCC2CCC2C1CCCC2,057574-09-1,-7.113587035,O=C(O)CCCCCCNC1C2CCCCC2CCC2CCCCC21
4602,B-10027,2-[2-[(2.6-dichloro-3-hydroxyphenyl)amino]phenyl]acetic acid,HYPJZSYXUWYJDG-UHFFFAOYSA-N,OC(=O)CC1CCCCC1NC1C(Cl)CCC(C1Cl)O,069002-85-3,-3.800630825,O=C(O)CC1CCCCC1NC1C(Cl)CCC(O)C1Cl
4603,B-10028,2-(2-oxo-2-phenylethyl)benzoic acid,MLCPCDOOBNXTFB-UHFFFAOYSA-N,O=C(C1CCCCC1)CC1CCCCC1C(=O)O,002881-31-4,-3.44719057,O=C(CC1CCCCC1C(=O)O)C1CCCCC1
4604,B-10032,4-Fluoro-N-phenylbenzenesulfonamide,LDOCMFAHAVONEI-UHFFFAOYSA-N,FC1CCC(CC1)S(=O)(=O)NC1CCCCC1,000312-52-7,-3.452225645,O=S(=O)(NC1CCCCC1)C1CCC(F)CC1
4605,B-10033,4-acetyloxy-3-methoxybenzoic acid,WTPDKEAYVAXNRO-UHFFFAOYSA-N,COC1CC(CCC1OC(=O)C)C(=O)O,010543-12-1,-2.060150629,COC1CC(C(=O)O)CCC1OC(C)=O
4606,B-10034,1-(4-fluorophenyl)-4-[4-(2-methoxyphenyl)piperazin-1-yl]butan-1-one,IRYFCWPNDIUQOW-UHFFFAOYSA-N,COC1CCCCC1N1CCN(CC1)CCCC(=O)C1CCC(CC1)F,001480-19-9,-3.439717897,COC1CCCCC1N1CCN(CCCC(=O)C2CCC(F)CC2)CC1
4607,B-10036,11-(3-diethylaminopropyl)-5H-benzo[b][1.4]benzodiazepin-6-one,IVFHUYCFFOSCLM-UHFFFAOYSA-N,CCN(CCCN1C2CCCCC2[NH]C(=O)C2C1CCCC2)CC,013961-22-3,-6.300278714,CCN(CC)CCCN1C2CCCCC2NC(=O)C2CCCCC21
4608,B-10037,[1-acetyloxy-3-(phenoxy)propan-2-yl] acetate,MFUHTALWGBAVOL-UHFFFAOYSA-N,CC(=O)OC(COC(=O)C)COC1CCCCC1,007250-71-7,-2.803068231,CC(=O)OCC(COC1CCCCC1)OC(C)=O
4609,B-10038,2-[(3-hydroxy-2.4.6-triiodophenyl)methyl]butanoic acid,GOIQOQCNFWYSTQ-UHFFFAOYSA-N,CCC(C(=O)O)CC1C(I)CC(C(C1I)O)I,000096-84-4,-6.549162007,CCC(CC1C(I)CC(I)C(O)C1I)C(=O)O
4610,B-10039,spiro[pyrrolidine-4.2&apos-tricyclo[9.4.0.03.8]pentadeca-1(15).3.5.7.11.13-hexaene]-2-one,NFHMMNLSDVYWAP-UHFFFAOYSA-N,O=C1NCC2(C1)C1CCCCC1CCC1C2CCCC1,064036-49-3,-5.179967583,O=C1CC2(CN1)C1CCCCC1CCC1CCCCC12
4611,B-10041,2-(8-methyl-3.8-diazabicyclo[3.2.1]octan-3-yl)ethyl 2.2-di(phenyl)acetate,NDSWVTKMCVPUFP-UHFFFAOYSA-N,CN1C2CCC1CN(C2)CCOC(=O)C(C1CCCCC1)C1CCCCC1,063978-02-9,-4.026390318,CN1C2CCC1CN(CCOC(=O)C(C1CCCCC1)C1CCCCC1)C2
4612,B-10042,N-acridin-2-ylacetamide,QMRJLXOCWJOZLU-UHFFFAOYSA-N,CC(=O)NC1CCC2C(C1)CC1C(N2)CCCC1,023043-50-7,-4.106244205,CC(=O)NC1CCC2NC3CCCCC3CC2C1
4613,B-10043,N'-phenylacetohydrazide,UICBCXONCUFSOI-UHFFFAOYSA-N,CC(=O)NNC1CCCCC1,000114-83-0,-0.926194989,CC(=O)NNC1CCCCC1
4614,B-10044,2-dimethylaminoethyl 2.2-di(phenyl)-2-prop-2-ynoxyacetate,QNPHCSSJLHAKSA-UHFFFAOYSA-N,C#CCOC(C1CCCCC1)(C1CCCCC1)C(=O)OCCN(C)C,013479-13-5,-3.059822216,C#CCOC(C(=O)OCCN(C)C)(C1CCCCC1)C1CCCCC1
4615,B-10045,4-chloro-2-[(4-methoxyphenyl)amino]benzoic acid,KAERBVZTGPZZHW-UHFFFAOYSA-N,COC1CCC(CC1)NC1CC(Cl)CCC1C(=O)O,000091-38-3,-5.418276286,COC1CCC(NC2CC(Cl)CCC2C(=O)O)CC1
4616,B-10046,2-[[4.5-di(phenyl)-1.3-oxazol-2-yl]amino]ethanol,QLQCGYKBQYMJFD-UHFFFAOYSA-N,OCCNC1NC(C(O1)C1CCCCC1)C1CCCCC1,020503-75-7,-3.820299073,OCCNC1NC(C2CCCCC2)C(C2CCCCC2)O1
4617,B-10047,[(R)-cyano-[3-(phenoxy)phenyl]methyl] (1R.3S)-3-(2.2-dichloroethenyl)-2.2-dimethylcyclopropane-1-carboxylate,KAATUXNTWXVJKI-HBFSDRIKSA-N,N#C[C@@H](C1CCCC(C1)OC1CCCCC1)OC(=O)[C@@H]1[C@H](C1(C)C)C=C(Cl)Cl,066841-24-5,-8.02000049,CC1(C)C(C=C(Cl)Cl)C1C(=O)OC(C#N)C1CCCC(OC2CCCCC2)C1
4618,B-10049,N-[[(E)-3-phenylprop-2-enylidene]amino]pyridine-4-carboxamide,IZMVXNJRIXIGGM-CUQLSPFUSA-N,O=C(C1CCNCC1)N/N=C/C=C/C1CCCCC1,004813-11-0,-3.04799096,O=C(NN=CC=CC1CCCCC1)C1CCNCC1
4619,B-10050,2-(2.6-dichlorophenyl)ethylurea,WHCIYAMCNYHKDJ-UHFFFAOYSA-N,NC(=O)NCCC1C(Cl)CCCC1Cl,017291-86-0,-2.949226077,NC(=O)NCCC1C(Cl)CCCC1Cl
4620,B-10051,[4-[bis(2-chloroethyl)amino]phenyl] 3-fluorobenzoate,WNHQFWFQAJPQMC-UHFFFAOYSA-N,ClCCN(C1CCC(CC1)OC(=O)C1CCCC(C1)F)CCCl,022953-55-5,-5.993007278,O=C(OC1CCC(N(CCCl)CCCl)CC1)C1CCCC(F)C1
4621,B-10052,3-methyl-4-phenylbut-3-enoic acid,NGJLFMBOFBKYHK-VQHVLOKHSA-N,C/C(=C\C1CCCCC1)/CC(=O)O,006052-53-5,-2.746355792,CC(=CC1CCCCC1)CC(=O)O
4622,B-10053,3-(2-methyl-6-prop-2-enylphenoxy)propane-1.2-diol,PDQZSLQGPNGYIF-UHFFFAOYSA-N,C=CCC1CCCC(C1OCC(CO)O)C,063905-24-8,-3.213369295,C=CCC1CCCC(C)C1OCC(O)CO
4623,B-10054,2-(4-chlorophenyl)-1-cyanoguanidine,JMEJOUCPQDFPFK-UHFFFAOYSA-N,N#CN/C(=N/C1CCC(CC1)Cl)/N,001482-62-8,-1.960812305,N#CNC(N)=NC1CCC(Cl)CC1
4624,B-10055,3-[2-(4-chlorophenoxy)-2-methylpropanoyl]oxypropyl 2-(4-chlorophenoxy)-2-methylpropanoate,JLRNKCZRCMIVKA-UHFFFAOYSA-N,O=C(C(OC1CCC(CC1)Cl)(C)C)OCCCOC(=O)C(OC1CCC(CC1)Cl)(C)C,014929-11-4,-7.182668828,CC(C)(OC1CCC(Cl)CC1)C(=O)OCCCOC(=O)C(C)(C)OC1CCC(Cl)CC1
4625,B-10056,1.3-dimethyl-8-(2-methylpropyl)-7H-purine-2.6-dione,NOEMEJJCNDUHJT-UHFFFAOYSA-N,CC(CC1[NH]C2C(N1)N(C)C(=O)N(C2=O)C)C,005770-30-9,-2.252843822,CC(C)CC1NC2C(=O)N(C)C(=O)N(C)C2N1
4626,B-10057,1H-pyrazolo[4.3-e]pyrimidin-4-amine,LHCPRYRLDOSKHK-UHFFFAOYSA-N,NC1NCNC2C1CN[NH]2,002380-63-4,-0.877898746,NC1NCNC2NNCC12
4627,B-10058,1-[(2.4-dichlorophenyl)methyl]indazole-3-carboxylic acid,WDRYRZXSPDWGEB-UHFFFAOYSA-N,ClC1CCC(C(C1)Cl)CN1NC(C2C1CCCC2)C(=O)O,050264-69-2,-5.565553946,O=C(O)C1NN(CC2CCC(Cl)CC2Cl)C2CCCCC12
4628,B-10059,2-(2-phenylacetyl)benzoic acid,NJXDTGLUPRKMFN-UHFFFAOYSA-N,O=C(C1CCCCC1C(=O)O)CC1CCCCC1,033148-55-9,-3.44719057,O=C(O)C1CCCCC1C(=O)CC1CCCCC1
4629,B-10060,2-propoxybenzamide,FAVIQMSTEFBUJX-UHFFFAOYSA-N,CCCOC1CCCCC1C(=O)N,059643-84-4,-1.5896831,CCCOC1CCCCC1C(N)=O
4630,B-10061,1-(3.4-dimethoxyphenyl)propan-2-one,UMYZWICEDUEWIM-UHFFFAOYSA-N,COC1CC(CCC1OC)CC(=O)C,000776-99-8,-1.572312967,COC1CCC(CC(C)=O)CC1OC
4631,B-10062,[(4R.4aR.7S.7aR.12bS)-9-methoxy-3-methyl-2.4.4a.5.6.7.7a.13-octahydro-1H-4.12-methanobenzofuro[3.2-e]isoquinolin-7-yl] acetate,LGGDXXJAGWBUSL-BKRJIHRRSA-N,COC1CCC2C3C1O[C@@H]1[C@@]43CCN([C@H](C2)[C@@H]4CC[C@@H]1OC(=O)C)C,003861-72-1,-2.828259202,COC1CCC2CC3C4CCC(OC(C)=O)C5OC1C2C45CCN3C
4632,B-10063,2-[[4.5-di(phenyl)-1.3-oxazol-2-yl]-ethylamino]ethanol,IYMDCTFFGDILDM-UHFFFAOYSA-N,OCCN(C1NC(C(O1)C1CCCCC1)C1CCCCC1)CC,020503-79-1,-4.911595827,CCN(CCO)C1NC(C2CCCCC2)C(C2CCCCC2)O1
4633,B-10064,N-(2-methylphenyl)-4-nitrobenzamide,QEPSIRAPSOKGGM-UHFFFAOYSA-N,O=C(C1CCC(CC1)[N+](=O)[O-])NC1CCCCC1C,036855-81-9,-3.595769143,CC1CCCCC1NC(=O)C1CCC([N+](=O)[O-])CC1
4634,B-10065,4-[1-hydroxy-2-[4-(phenylmethyl)piperidin-1-yl]propyl]phenol,UYNVMODNBIQBMV-UHFFFAOYSA-N,OC1CCC(CC1)C(C(N1CCC(CC1)CC1CCCCC1)C)O,023210-56-2,-3.093026872,CC(C(O)C1CCC(O)CC1)N1CCC(CC2CCCCC2)CC1
4635,B-10066,1-[(1R.9R.10R)-4-hydroxy-17-azatetracyclo[7.5.3.01.10.02.7]heptadeca-2(7).3.5-trien-17-yl]ethanone,GYIBSRBIOHMGPQ-CGTJXYLNSA-N,OC1CCC2C(C1)[C@]13CCCC[C@H]3[C@@H](C2)N(CC1)C(=O)C,063904-95-0,-3.355063626,CC(=O)N1CCC23CCCCC2C1CC1CCC(O)CC13
4636,B-10067,(2R)-3-hydroxy-2-phenylpropanoic acid,JACRWUWPXAESPB-QMMMGPOBSA-N,OC[C@@H](C1CCCCC1)C(=O)O,017126-67-9,-0.93000001,O=C(O)C(CO)C1CCCCC1
4637,B-10068,1.1-dioxo-4H-benzo[e]thiazin-3-one,JBWSEIGJTHGZRV-UHFFFAOYSA-N,O=C1CC2CCCCC2S(=O)(=O)N1,027363-39-9,-0.85876186,O=C1CC2CCCCC2S(=O)(=O)N1
4638,B-10069,2-(3-methyl-2-phenylmorpholin-4-yl)ethyl 2-phenylbutanoate,BAQKJENAVQLANS-UHFFFAOYSA-N,CCC(C1CCCCC1)C(=O)OCCN1CCOC(C1C)C1CCCCC1,004378-36-3,-4.587840875,CCC(C(=O)OCCN1CCOC(C2CCCCC2)C1C)C1CCCCC1
4639,B-10070,6-chloro-4-(2.3-dihydroxypropyl)-1.4-benzoxazin-3-one,XDCFGLSPLPULQH-UHFFFAOYSA-N,OC(CO)CN1C(=O)COC2C1CC(Cl)CC2,052042-27-0,-0.596816279,O=C1COC2CCC(Cl)CC2N1CC(O)CO
4640,B-10071,1-ethyl-4-(2-morpholin-4-ylethyl)-3.3-di(phenyl)pyrrolidin-2-one,XFDJYSQDBULQSI-UHFFFAOYSA-N,CCN1CC(C(C1=O)(C1CCCCC1)C1CCCCC1)CCN1CCOCC1,000309-29-5,-4.877986526,CCN1CC(CCN2CCOCC2)C(C2CCCCC2)(C2CCCCC2)C1=O
4641,B-10072,4-[5-(5-hydroxy-2.4.4-trimethylpentan-2-yl)-[1.3]thiazolo[5.4-d][1.3]thiazol-2-yl]-2.2.4-trimethylpentan-1-ol,XWNZVGDZWLLXSJ-UHFFFAOYSA-N,OCC(CC(C1NC2C(S1)NC(S2)C(CC(CO)(C)C)(C)C)(C)C)(C)C,064048-15-3,-7.375254143,CC(C)(CO)CC(C)(C)C1NC2SC(C(C)(C)CC(C)(C)CO)NC2S1
4642,B-10074,5-(2-diethylaminoethyl)-11H-benzo[b][1.4]benzodiazepin-6-one,OYMOPEYQIAFWSQ-UHFFFAOYSA-N,CCN(CCN1C(=O)C2CCCCC2[NH]C2C1CCCC2)CC,004343-43-5,-5.162158939,CCN(CC)CCN1C(=O)C2CCCCC2NC2CCCCC21