,C_ID,Name,InChIKey,SMILES,CAS,LogS,smiles_canon
2929,B-7701,(E)-2-amino-5-(2.4-difluorophenyl)-5-(4-propan-2-ylphenyl)pent-4-enoic acid,ODWZNBOTFNAHQY-CXUHLZMHSA-N,CC(C)C1=CC=C(C=C1)/C(=C\CC(C(=O)O)N)/C2=C(C=C(C=C2)F)F,000089-48-5,-4.307858575,CC(C)c1ccc(C(=CCC(N)C(=O)O)c2ccc(F)cc2F)cc1
2930,B-7702,3-amino-4-chlorobenzenesulfonamide,OIWCPLBCWJUCMR-UHFFFAOYSA-N,C1=CC(=C(C=C1S(=O)(=O)N)N)Cl,029920-31-8,-6.036474453,Nc1cc(S(N)(=O)=O)ccc1Cl
2931,B-7703,1.3-Diaminourea,XEVRDFDBXJMZFG-UHFFFAOYSA-N,C(=O)(NN)NN,000497-18-7,0.414565303,NNC(=O)NN
2932,B-7704,2-(3-chlorophenoxy)-N-(3-cyanophenyl)acetamide,WYMUZQJQRNMLPW-UHFFFAOYSA-N,C1=CC(=CC(=C1)NC(=O)COC2=CC(=CC=C2)Cl)C#N,020298-69-5,-4.457442841,N#Cc1cccc(NC(=O)COc2cccc(Cl)c2)c1
2933,B-7705,(3S.4R.5S)-3.4.5.6-tetrahydroxy-2-oxohexanoic acid,VBUYCZFBVCCYFD-NUNKFHFFSA-N,C([C@@H]([C@H]([C@@H](C(=O)C(=O)O)O)O)O)O,000526-98-7,0.237316739,O=C(O)C(=O)C(O)C(O)C(O)CO
2934,B-7706,3-(3-methyl-5-oxo-4H-pyrazol-1-yl)benzenesulfonic acid,VEMGKBUHUTYHHA-UHFFFAOYSA-N,CC1=NN(C(=O)C1)C2=CC(=CC=C2)S(=O)(=O)O,000119-17-5,-1.771809587,CC1=NN(c2cccc(S(=O)(=O)O)c2)C(=O)C1
2935,B-7707,N-[2-[(4-amino-3-methylphenyl)-ethylamino]ethyl]methanesulfonamide,NPKFETRYYSUTEC-UHFFFAOYSA-N,CCN(CCNS(=O)(=O)C)C1=CC(=C(C=C1)N)C,000092-09-1,-1.831512726,CCN(CCNS(C)(=O)=O)c1ccc(N)c(C)c1
2936,B-7708,2.2-bis(hydroxymethyl)butanoic acid,JVYDLYGCSIHCMR-UHFFFAOYSA-N,CCC(CO)(CO)C(=O)O,010097-02-6,0.516802682,CCC(CO)(CO)C(=O)O
2937,B-7709,(1R.2R.4R.5R.7S.10R.11S.14S.15S.16S.18S.19S)-15-(3-hydroxyprop-1-ynyl)-10.14-dimethylhexacyclo[9.8.0.02.4.05.10.014.19.016.18]nonadecane-5.7.15-triol,AEKIUMMMGNCKSL-FQKVVJEISA-N,C[C@]12CC[C@@H](C[C@]1([C@@H]3C[C@@H]3[C@@H]4[C@@H]2CC[C@]5([C@H]4[C@@H]6C[C@@H]6[C@]5(C#CCO)O)C)O)O,082543-17-7,-2.4600447,CC12CCC3C(C4CC4C4(O)CC(O)CCC34C)C1C1CC1C2(O)C#CCO
2938,B-7710,2-butan-2-yl-4-[4-[4-(4-hydroxyphenyl)piperazin-1-yl]phenyl]-1.2.4-triazol-3-one,FFAQILVGBAELHN-UHFFFAOYSA-N,CCC(C)N1C(=O)N(C=N1)C2=CC=C(C=C2)N3CCN(CC3)C4=CC=C(C=C4)O,106461-41-0,-4.828518204,CCC(C)n1ncn(-c2ccc(N3CCN(c4ccc(O)cc4)CC3)cc2)c1=O
2939,B-7711,3-(5-imino-3-methyl-4H-pyrazol-1-yl)benzenesulfonic acid,INHXSMASASFALB-UHFFFAOYSA-N,CC1=NN(C(=N)C1)C2=CC(=CC=C2)S(=O)(=O)O,068083-38-5,-1.138774844,CC1=NN(c2cccc(S(=O)(=O)O)c2)C(=N)C1
2940,B-7712,5.12-dihydroquinolino[2.3-b]acridine-7.14-dione,NRCMAYZCPIVABH-UHFFFAOYSA-N,C1=CC=C2C(=C1)C(=O)C3=CC4=C(C=C3N2)C(=O)C5=CC=CC=C5N4,001047-16-1,-7.481772305,O=c1c2ccccc2[nH]c2cc3c(=O)c4ccccc4[nH]c3cc12
2941,B-7713,5.7-dihydroxy-2-(3-hydroxy-4-methoxyphenyl)chromen-4-one,MBNGWHIJMBWFHU-UHFFFAOYSA-N,COC1=C(C=C(C=C1)C2=CC(=O)C3=C(C=C(C=C3O2)O)O)O,000520-34-3,-6.198754293,COc1ccc(-c2cc(=O)c3c(O)cc(O)cc3o2)cc1O
2942,B-7714,tris(oxiran-2-ylmethyl) benzene-1.2.4-tricarboxylate,OECHJCKPWGMZMG-UHFFFAOYSA-N,C1C(O1)COC(=O)C2=CC(=C(C=C2)C(=O)OCC3CO3)C(=O)OCC4CO4,007237-83-4,-2.762258593,O=C(OCC1CO1)c1ccc(C(=O)OCC2CO2)c(C(=O)OCC2CO2)c1
2943,B-7715,1-amino-4-(4-amino-9.10-dioxoanthracen-1-yl)anthracene-9.10-dione,KNMQFBWXSICVQC-UHFFFAOYSA-N,C1=CC=C2C(=C1)C(=O)C3=C(C=CC(=C3C2=O)N)C4=C5C(=C(C=C4)N)C(=O)C6=CC=CC=C6C5=O,004051-63-2,-7.249878407,Nc1ccc(-c2ccc(N)c3c2C(=O)c2ccccc2C3=O)c2c1C(=O)c1ccccc1C2=O
2944,B-7716,ethyl 3-[(3-amino-4-methylaminobenzoyl)-pyridin-2-ylamino]propanoate,PCPATNZTKBOKOY-UHFFFAOYSA-N,CCOC(=O)CCN(C1=CC=CC=N1)C(=O)C2=CC(=C(C=C2)NC)N,212322-56-0,-2.316256844,CCOC(=O)CCN(C(=O)c1ccc(NC)c(N)c1)c1ccccn1
2945,B-7717,diethyl 2-[[4-(3-ethoxy-2-ethoxycarbonyl-3-oxoprop-1-enyl)phenyl]methylidene]propanedioate,YUOKTNQLLUHUEK-UHFFFAOYSA-N,CCOC(=O)C(=CC1=CC=C(C=C1)C=C(C(=O)OCC)C(=O)OCC)C(=O)OCC,006337-43-5,-5.621635892,CCOC(=O)C(=Cc1ccc(C=C(C(=O)OCC)C(=O)OCC)cc1)C(=O)OCC
2946,B-7718,1-(diaminomethylidene)-2-(2-methylphenyl)guanidine,SQZCAOHYQSOZCE-UHFFFAOYSA-N,CC1=CC=CC=C1N=C(N)N=C(N)N,000093-69-6,-1.842235141,Cc1ccccc1N=C(N)N=C(N)N
2947,B-7719,N-[4-(2.4-dihydroxyphenyl)-1.3-thiazol-2-yl]-2-methylpropanamide,WIDNAJNXDPHROL-UHFFFAOYSA-N,CC(C)C(=O)NC1=NC(=CS1)C2=C(C=C(C=C2)O)O,1428450-95-6,-4.145699453,CC(C)C(=O)Nc1nc(-c2ccc(O)cc2O)cs1
2948,B-7720,ethyl 2-[4-[4-[4-(2-hydroxy-2.2-diphenylethyl)piperidin-1-yl]butanoyl]phenyl]-2-methylpropanoate,HVGZPVJKOVJJBL-UHFFFAOYSA-N,CCOC(=O)C(C)(C)C1=CC=C(C=C1)C(=O)CCCN2CCC(CC2)CC(C3=CC=CC=C3)(C4=CC=CC=C4)O,076812-02-7,-4.927602111,CCOC(=O)C(C)(C)c1ccc(C(=O)CCCN2CCC(CC(O)(c3ccccc3)c3ccccc3)CC2)cc1
2949,B-7721,2-fluoro-N-methyl-4-[7-(quinolin-6-ylmethyl)imidazo[1.2-b][1.2.4]triazin-2-yl]benzamide,LIOLIMKSCNQPLV-UHFFFAOYSA-N,CNC(=O)C1=C(C=C(C=C1)C2=NN3C(=CN=C3N=C2)CC4=CC5=C(C=C4)N=CC=C5)F,1029712-80-8,-5.919863622,CNC(=O)c1ccc(-c2cnc3ncc(Cc4ccc5ncccc5c4)n3n2)cc1F
2950,B-7722,6-amino-2-(2.4-dimethylphenyl)benzo[de]isoquinoline-1.3-dione,FQLZTPSAVDHUKS-UHFFFAOYSA-N,CC1=CC(=C(C=C1)N2C(=O)C3=C4C(=C(C=C3)N)C=CC=C4C2=O)C,002478-20-8,-4.891653611,Cc1ccc(N2C(=O)c3cccc4c(N)ccc(c34)C2=O)c(C)c1
2951,B-7723,N-[(prop-2-enoylamino)methyl]prop-2-enamide,ZIUHHBKFKCYYJD-UHFFFAOYSA-N,C=CC(=O)NCNC(=O)C=C,000110-26-9,-0.655240423,C=CC(=O)NCNC(=O)C=C
2952,B-7724,3-hydroxy-4-[(2-methyl-4-nitrophenyl)diazenyl]-N-(2-methylphenyl)naphthalene-2-carboxamide,KDLDNQQRGJAGIS-UHFFFAOYSA-N,CC1=CC=CC=C1NC(=O)C2=CC3=CC=CC=C3C(=C2O)N=NC4=C(C=C(C=C4)[N+](=O)[O-])C,006410-32-8,-7.981146079,Cc1cc([N+](=O)[O-])ccc1N=Nc1c(O)c(C(=O)Nc2ccccc2C)cc2ccccc12
2953,B-7725,4-[4-[4-(4-methoxyphenyl)piperazin-1-yl]phenyl]-2H-1.2.4-triazol-3-one,SEHQVBVJJRRRSG-UHFFFAOYSA-N,COC1=CC=C(C=C1)N2CCN(CC2)C3=CC=C(C=C3)N4C=NNC4=O,074853-07-9,-6.488905804,COc1ccc(N2CCN(c3ccc(-n4cn[nH]c4=O)cc3)CC2)cc1
2954,B-7726,2-ethoxy-5-(4-methylpiperazin-1-yl)sulfonylbenzoic acid,TXKSEEXWAGLOIY-UHFFFAOYSA-N,CCOC1=C(C=C(C=C1)S(=O)(=O)N2CCN(CC2)C)C(=O)O,194602-23-8,-1.507779701,CCOc1ccc(S(=O)(=O)N2CCN(C)CC2)cc1C(=O)O
2955,B-7727,2-(4-methyl-2-oxochromen-7-yl)oxy-N-(1.3.4-thiadiazol-2-yl)acetamide,QDWVMPWRBMUURS-UHFFFAOYSA-N,CC1=CC(=O)OC2=C1C=CC(=C2)OCC(=O)NC3=NN=CS3,068611-23-4,-4.401124984,Cc1cc(=O)oc2cc(OCC(=O)Nc3nncs3)ccc12
2956,B-7728,[2-[2.2-bis(prop-2-enoyloxymethyl)butoxymethyl]-2-(prop-2-enoyloxymethyl)butyl] prop-2-enoate,XRMBQHTWUBGQDN-UHFFFAOYSA-N,CCC(COCC(CC)(COC(=O)C=C)COC(=O)C=C)(COC(=O)C=C)COC(=O)C=C,094108-97-1,-4.49278571,C=CC(=O)OCC(CC)(COCC(CC)(COC(=O)C=C)COC(=O)C=C)COC(=O)C=C
2957,B-7729,(E)-4-(octadecylamino)-4-oxobut-2-enoic acid,NWODYZCQADERLP-VHEBQXMUSA-N,CCCCCCCCCCCCCCCCCCNC(=O)/C=C/C(=O)O,003077-27-8,-4.794488992,CCCCCCCCCCCCCCCCCCNC(=O)C=CC(=O)O
2958,B-7730,tert-butyl (E)-7-[3-(4-fluorophenyl)-1-propan-2-ylindol-2-yl]-3.5-dihydroxyhept-6-enoate,USGKHYXJISAYPE-CCEZHUSRSA-N,CC(C)N1C2=CC=CC=C2C(=C1/C=C/C(CC(CC(=O)OC(C)(C)C)O)O)C3=CC=C(C=C3)F,129332-29-2,-6.624532298,CC(C)n1c(C=CC(O)CC(O)CC(=O)OC(C)(C)C)c(-c2ccc(F)cc2)c2ccccc21
2959,B-7731,2-(1-amino-4-hydroxy-9.10-dioxoanthracen-2-yl)oxyethyl ethyl carbonate,GLVDLLVMSDGVDA-UHFFFAOYSA-N,CCOC(=O)OCCOC1=C(C2=C(C(=C1)O)C(=O)C3=CC=CC=C3C2=O)N,040530-60-7,-9.219530498,CCOC(=O)OCCOc1cc(O)c2c(c1N)C(=O)c1ccccc1C2=O
2960,B-7732,benzyl 4-[(1-butyl-5-cyano-6-hydroxy-4-methyl-2-oxopyridin-3-yl)diazenyl]benzoate,PJILQVVUGZBIRF-UHFFFAOYSA-N,CCCCN1C(=C(C(=C(C1=O)N=NC2=CC=C(C=C2)C(=O)OCC3=CC=CC=C3)C)C#N)O,075199-13-2,-7.267660524,CCCCn1c(O)c(C#N)c(C)c(N=Nc2ccc(C(=O)OCc3ccccc3)cc2)c1=O
2961,B-7733,4-[2-(2-methylprop-2-enoyloxy)ethoxy]-4-oxobutanoic acid,ZEWLHMQYEZXSBH-UHFFFAOYSA-N,CC(=C)C(=O)OCCOC(=O)CCC(=O)O,020882-04-6,-0.706710803,C=C(C)C(=O)OCCOC(=O)CCC(=O)O
2962,B-7734,2-(2-ethoxyphenyl)-5-methyl-7-propyl-1H-imidazo[5.1-f][1.2.4]triazin-4-one,YRRWQMBIMZMVDB-UHFFFAOYSA-N,CCCC1=NC(=C2N1NC(=NC2=O)C3=CC=CC=C3OCC)C,224789-21-3,-4.655821061,CCCc1nc(C)c2c(=O)nc(-c3ccccc3OCC)[nH]n12
2963,B-7735,2-hydroxy-5-octanoylbenzoic acid,IXIGWKNBFPKCCD-UHFFFAOYSA-N,CCCCCCCC(=O)C1=CC(=C(C=C1)O)C(=O)O,078418-01-6,-3.948936102,CCCCCCCC(=O)c1ccc(O)c(C(=O)O)c1
2964,B-7736,[2-(6-fluoro-11-hydroxy-10.13.16-trimethyl-3-oxo-6.7.8.9.11.12.14.15.16.17-decahydrocyclopenta[a]phenanthren-17-yl)-2-oxoethyl] pentanoate,ASVQNGFDDHFBPT-UHFFFAOYSA-N,CCCCC(=O)OCC(=O)C1C(CC2C1(CC(C3C2CC(C4=CC(=O)C=CC34C)F)O)C)C,036130-02-6,-6.487218248,CCCCC(=O)OCC(=O)C1C(C)CC2C3CC(F)C4=CC(=O)C=CC4(C)C3C(O)CC21C
2965,B-7737,4-amino-2.5-dimethoxy-N-methylbenzenesulfonamide,CISVVDNATRQDNU-UHFFFAOYSA-N,CNS(=O)(=O)C1=C(C=C(C(=C1)OC)N)OC,049701-24-8,-3.651067513,CNS(=O)(=O)c1cc(OC)c(N)cc1OC
2966,B-7738,6-(7-methyloctanoylamino)hexanoic acid,KWAKSEGGFHCMJS-UHFFFAOYSA-N,CC(C)CCCCCC(=O)NCCCCCC(=O)O,071902-23-3,-2.752367006,CC(C)CCCCCC(=O)NCCCCCC(=O)O
2967,B-7739,6-aminohexylcarbamic acid,HDIHOAXFFROQHR-UHFFFAOYSA-N,C(CCCNC(=O)O)CCN,000143-06-6,-0.09529501,NCCCCCCNC(=O)O
2968,B-7740,2-phenyl-3H-benzimidazole-5-sulfonic acid,UVCJGUGAGLDPAA-UHFFFAOYSA-N,C1=CC=C(C=C1)C2=NC3=C(N2)C=C(C=C3)S(=O)(=O)O,027503-81-7,-3.400789177,O=S(=O)(O)c1ccc2nc(-c3ccccc3)[nH]c2c1
2969,B-7741,ethyl 1-(4-methoxyphenyl)-6-(4-nitrophenyl)-7-oxo-4.5-dihydropyrazolo[5.4-c]pyridine-3-carboxylate,RQNAOIQEGPVYTC-UHFFFAOYSA-N,CCOC(=O)C1=NN(C2=C1CCN(C2=O)C3=CC=C(C=C3)[N+](=O)[O-])C4=CC=C(C=C4)OC,536759-91-8,-6.61871853,CCOC(=O)c1nn(-c2ccc(OC)cc2)c2c1CCN(c1ccc([N+](=O)[O-])cc1)C2=O
2970,B-7742,[3.5-diacetyloxy-2-(acetyloxymethyl)-6-naphthalen-1-ylsulfanyloxan-4-yl] acetate,LSNHGJLDZWNVLR-UHFFFAOYSA-N,CC(=O)OCC1C(C(C(C(O1)SC2=CC=CC3=CC=CC=C32)OC(=O)C)OC(=O)C)OC(=O)C,000374-27-6,-4.013966651,CC(=O)OCC1OC(Sc2cccc3ccccc23)C(OC(C)=O)C(OC(C)=O)C1OC(C)=O
2971,B-7743,2-(4-methyl-2-nitrophenyl)diazenyl-3-oxo-N-phenylbutanamide,MFYSUUPKMDJYPF-UHFFFAOYSA-N,CC1=CC(=C(C=C1)N=NC(C(=O)C)C(=O)NC2=CC=CC=C2)[N+](=O)[O-],002512-29-0,-7.417966835,CC(=O)C(N=Nc1ccc(C)cc1[N+](=O)[O-])C(=O)Nc1ccccc1
2972,B-7744,4-(4-hydroxyphenyl)sulfonylphenol,VPWNQTHUCYMVMZ-UHFFFAOYSA-N,C1=CC(=CC=C1O)S(=O)(=O)C2=CC=C(C=C2)O,000080-09-1,-2.357013679,O=S(=O)(c1ccc(O)cc1)c1ccc(O)cc1
2973,B-7745,Tetramethyl 7.9-dimethyl-9aH-quinolizine-1.2.3.4-tetracarboxylate,NIAYDOWGZDIMJA-UHFFFAOYSA-N,CC1=CC(=CN2C1C(=C(C(=C2C(=O)OC)C(=O)OC)C(=O)OC)C(=O)OC)C,005533-03-9,-2.260237425,COC(=O)C1=C(C(=O)OC)C2C(C)=CC(C)=CN2C(C(=O)OC)=C1C(=O)OC
2974,B-7746,3-hydroxy-N-(3-nitrophenyl)naphthalene-2-carboxamide,YZJSKRBKHCLMQC-UHFFFAOYSA-N,C1=CC=C2C=C(C(=CC2=C1)C(=O)NC3=CC(=CC=C3)[N+](=O)[O-])O,000135-65-9,-6.643865342,O=C(Nc1cccc([N+](=O)[O-])c1)c1cc2ccccc2cc1O
2975,B-7747,2.5-Diaminobenzenesulfonic acid,HEAHMJLHQCESBZ-UHFFFAOYSA-N,C1=CC(=C(C=C1N)S(=O)(=O)O)N,000088-45-9,-1.672561474,Nc1ccc(N)c(S(=O)(=O)O)c1
2976,B-7748,3-[4-[[4-(dimethylcarbamoylamino)phenyl]methyl]phenyl]-1.1-dimethylurea,MOAPNXVHLARBNQ-UHFFFAOYSA-N,CN(C)C(=O)NC1=CC=C(C=C1)CC2=CC=C(C=C2)NC(=O)N(C)C,010097-09-3,-3.878807912,CN(C)C(=O)Nc1ccc(Cc2ccc(NC(=O)N(C)C)cc2)cc1
2977,B-7749,1-[4-hydroxy-5-(hydroxymethyl)oxolan-2-yl]-5-methylpyrimidine-2.4-dione,IQFYYKKMVGJFEH-UHFFFAOYSA-N,CC1=CN(C(=O)NC1=O)C2CC(C(O2)CO)O,000050-89-5,-0.742062088,Cc1cn(C2CC(O)C(CO)O2)c(=O)[nH]c1=O
2978,B-7750,3-phenyl-1-[2-(phenylsulfonylamino)phenyl]urea,BGLZECVIKIGPIF-UHFFFAOYSA-N,C1=CC=C(C=C1)NC(=O)NC2=CC=CC=C2NS(=O)(=O)C3=CC=CC=C3,215917-77-4,-4.57839295,O=C(Nc1ccccc1)Nc1ccccc1NS(=O)(=O)c1ccccc1
2979,B-7751,2-(4-aminophenyl)-6-methyl-1.3-benzothiazole-7-sulfonic acid,KGZUHYIHYBDNLC-UHFFFAOYSA-N,CC1=C(C2=C(C=C1)N=C(S2)C3=CC=C(C=C3)N)S(=O)(=O)O,000130-17-6,-4.332479671,Cc1ccc2nc(-c3ccc(N)cc3)sc2c1S(=O)(=O)O
2980,B-7752,3-(3-aminophenyl)sulfonylaniline,LJGHYPLBDBRCRZ-UHFFFAOYSA-N,C1=CC(=CC(=C1)S(=O)(=O)C2=CC=CC(=C2)N)N,000599-61-1,-3.511881612,Nc1cccc(S(=O)(=O)c2cccc(N)c2)c1
2981,B-7753,4-(2-Aminoethyl)benzenesulfonamide,FXNSVEQMUYPYJS-UHFFFAOYSA-N,C1=CC(=CC=C1CCN)S(=O)(=O)N,035303-76-5,-1.11125167,NCCc1ccc(S(N)(=O)=O)cc1
2982,B-7754,[3-[bis(phenoxy)phosphoryloxy]phenyl] diphenyl phosphate,OWICEWMBIBPFAH-UHFFFAOYSA-N,C1=CC=C(C=C1)OP(=O)(OC2=CC=CC=C2)OC3=CC(=CC=C3)OP(=O)(OC4=CC=CC=C4)OC5=CC=CC=C5,057583-54-7,-5.738072234,O=P(Oc1ccccc1)(Oc1ccccc1)Oc1cccc(OP(=O)(Oc2ccccc2)Oc2ccccc2)c1
2983,B-7755,3.4-Dihydroxy-5-nitrobenzaldehyde,BBFJODMCHICIAA-UHFFFAOYSA-N,C1=C(C=C(C(=C1[N+](=O)[O-])O)O)C=O,116313-85-0,-1.937836757,O=Cc1cc(O)c(O)c([N+](=O)[O-])c1
2984,B-7756,(4S.8R)-2.16.18-trihydroxy-7.9-dioxapentacyclo[10.8.0.03.10.04.8.014.19]icosa-1.3(10).11.14(19).15.17-hexaene-13.20-dione,BABJNKGTTYCTOO-ULCDLSAGSA-N,C1CO[C@H]2[C@@H]1C3=C(O2)C=C4C(=C3O)C(=O)C5=C(C4=O)C=C(C=C5O)O,047073-92-7,-5.327727417,O=C1c2cc(O)cc(O)c2C(=O)c2c1cc1c(c2O)C2CCOC2O1
2985,B-7757,(2R)-2-acetamido-3-methoxy-N-(phenylmethyl)propanamide,VPPJLAIAVCUEMN-GFCCVEGCSA-N,CC(=O)N[C@H](COC)C(=O)NCC1=CC=CC=C1,175481-26-2,-0.918448354,COCC(NC(C)=O)C(=O)NCc1ccccc1
2986,B-7758,1-[3-(2-oxoazepane-1-carbonyl)benzoyl]azepan-2-one,HXZRLUTUNSQNCG-UHFFFAOYSA-N,C1CCC(=O)N(CC1)C(=O)C2=CC(=CC=C2)C(=O)N3CCCCCC3=O,007381-13-7,-3.958344489,O=C1CCCCCN1C(=O)c1cccc(C(=O)N2CCCCCC2=O)c1
2987,B-7759,4-[(4-nitrobenzoyl)amino]benzamide,FANLHXKNWWSLIG-UHFFFAOYSA-N,C1=CC(=CC=C1C(=O)N)NC(=O)C2=CC=C(C=C2)[N+](=O)[O-],093839-21-5,-4.936724807,NC(=O)c1ccc(NC(=O)c2ccc([N+](=O)[O-])cc2)cc1
2988,B-7760,[4-acetyloxy-1-(3-acetyloxypropylamino)-3.3-dimethyl-1-oxobutan-2-yl] acetate,IFYVAPPYWOMVDP-UHFFFAOYSA-N,CC(=O)OCCCNC(=O)C(C(C)(C)COC(=O)C)OC(=O)C,098133-47-2,-0.056413646,CC(=O)OCCCNC(=O)C(OC(C)=O)C(C)(C)COC(C)=O
2989,B-7761,(6Z)-6-[[1-[[(Z)-(6-oxo-1-cyclohexa-2.4-dienylidene)methyl]amino]propan-2-ylamino]methylidene]cyclohexa-2.4-dien-1-one,OWGJODGIHAHWQP-GFCQZRJLSA-N,CC(CN/C=C\1/C=CC=CC1=O)N/C=C\2/C=CC=CC2=O,000094-91-7,-3.172020963,CC(CNC=C1C=CC=CC1=O)NC=C1C=CC=CC1=O
2990,B-7762,5-nitro-1.2-dihydro-1.2.4-triazol-3-one,QJTIRVUEVSKJTK-UHFFFAOYSA-N,C1(=NC(=O)NN1)[N+](=O)[O-],000932-64-9,-0.878624652,O=c1nc([N+](=O)[O-])[nH][nH]1
2991,B-7763,2-(2.4.5.7-tetrabromo-3-hydroxy-6-oxoxanthen-9-yl)benzoic acid,AZXGXVQWEUFULR-UHFFFAOYSA-N,C1=CC=C(C(=C1)C2=C3C=C(C(=O)C(=C3OC4=C(C(=C(C=C24)Br)O)Br)Br)Br)C(=O)O,017372-87-1,-0.692810925,O=C(O)c1ccccc1-c1c2cc(Br)c(=O)c(Br)c-2oc2c(Br)c(O)c(Br)cc12
2992,B-7764,tert-butyl N-[2-(3-cyano-2-azabicyclo[3.1.0]hexan-2-yl)-1-(3-hydroxy-1-adamantyl)-2-oxoethyl]carbamate,DZEAFYQJPRVNIQ-UHFFFAOYSA-N,CC(C)(C)OC(=O)NC(C(=O)N1C(CC2C1C2)C#N)C34CC5CC(C3)CC(C5)(C4)O,709031-43-6,-2.682057286,CC(C)(C)OC(=O)NC(C(=O)N1C(C#N)CC2CC21)C12CC3CC(CC(O)(C3)C1)C2
2993,B-7765,5-amino-1-[2.6-dichloro-4-(trifluoromethyl)phenyl]-4-ethylsulfinylpyrazole-3-carbonitrile,FNELVJVBIYMIMC-UHFFFAOYSA-N,CCS(=O)C1=C(N(N=C1C#N)C2=C(C=C(C=C2Cl)C(F)(F)F)Cl)N,181587-01-9,-4.635221412,CCS(=O)c1c(C#N)nn(-c2c(Cl)cc(C(F)(F)F)cc2Cl)c1N
2994,B-7766,[4-(4-hydroxybenzoyl)oxy-2-methylphenyl] 4-hydroxybenzoate,GXRSWJXJKSUYHZ-UHFFFAOYSA-N,CC1=C(C=CC(=C1)OC(=O)C2=CC=C(C=C2)O)OC(=O)C3=CC=C(C=C3)O,119959-84-1,-7.017455259,Cc1cc(OC(=O)c2ccc(O)cc2)ccc1OC(=O)c1ccc(O)cc1
2995,B-7767,[2-(acetyloxymethyl)-4-(2-amino-6-chloropurin-9-yl)butyl] acetate,KXPSHSVVYGZKAV-UHFFFAOYSA-N,CC(=O)OCC(CCN1C=NC2=C1N=C(N=C2Cl)N)COC(=O)C,097845-60-8,-2.93839804,CC(=O)OCC(CCn1cnc2c(Cl)nc(N)nc21)COC(C)=O
2996,B-7768,[2-[(6S.8S.9S.10R.11S.13S.14S.16R.17S)-6-fluoro-11-hydroxy-10.13.16-trimethyl-3-oxo-1.2.6.7.8.9.11.12.14.15.16.17-dodecahydrocyclopenta[a]phenanthren-17-yl]-2-oxoethyl] acetate,JXJAJSNUTGVHEG-WLDNQIQOSA-N,C[C@@H]1C[C@H]2[C@@H]3C[C@@H](C4=CC(=O)CC[C@@]4([C@H]3[C@H](C[C@@]2([C@H]1C(=O)COC(=O)C)C)O)C)F,001176-81-4,-6.172000323,CC(=O)OCC(=O)C1C(C)CC2C3CC(F)C4=CC(=O)CCC4(C)C3C(O)CC21C
2997,B-7769,N.N'-bis(2.2.6.6-tetramethylpiperidin-4-yl)benzene-1.3-dicarboxamide,OYNOCRWQLLIRON-UHFFFAOYSA-N,CC1(CC(CC(N1)(C)C)NC(=O)C2=CC(=CC=C2)C(=O)NC3CC(NC(C3)(C)C)(C)C)C,042774-15-2,-3.503039193,CC1(C)CC(NC(=O)c2cccc(C(=O)NC3CC(C)(C)NC(C)(C)C3)c2)CC(C)(C)N1
2998,B-7770,6.8-bis(phenylamino)naphthalene-1-sulfonic acid,USFSONWQSVCJBO-UHFFFAOYSA-N,C1=CC=C(C=C1)NC2=CC(=C3C(=C2)C=CC=C3S(=O)(=O)O)NC4=CC=CC=C4,000129-93-1,-4.672493786,O=S(=O)(O)c1cccc2cc(Nc3ccccc3)cc(Nc3ccccc3)c12
2999,B-7771,(6-methyl-2-oxo-1.3-diazinan-4-yl)urea,CZAUMIGWDFREBR-UHFFFAOYSA-N,CC1CC(NC(=O)N1)NC(=O)N,001129-42-6,-1.531419396,CC1CC(NC(N)=O)NC(=O)N1
3000,B-7772,3-(3-chloro-2-hydroxypropyl)-2-[2-(2-methylprop-2-enoyloxy)ethoxycarbonyl]benzoic acid,XNXYNGQBOWXCJQ-UHFFFAOYSA-N,CC(=C)C(=O)OCCOC(=O)C1=C(C=CC=C1C(=O)O)CC(CCl)O,054380-33-5,-2.805695217,C=C(C)C(=O)OCCOC(=O)c1c(CC(O)CCl)cccc1C(=O)O
3001,B-7773,N-(4-chloro-2.5-dimethoxyphenyl)-3-oxobutanamide,MOUVJGIRLPZEES-UHFFFAOYSA-N,CC(=O)CC(=O)NC1=CC(=C(C=C1OC)Cl)OC,004433-79-8,-2.979244619,COc1cc(NC(=O)CC(C)=O)c(OC)cc1Cl
3002,B-7774,1.2-dihydro-1.2.4-triazol-3-one,LZTSCEYDCZBRCJ-UHFFFAOYSA-N,C1=NC(=O)NN1,000930-33-6,-0.048938335,O=c1nc[nH][nH]1
3003,B-7775,naphthalene-2.6-dicarboxylic acid,RXOHFPCZGPKIRD-UHFFFAOYSA-N,C1=CC2=C(C=CC(=C2)C(=O)O)C=C1C(=O)O,001141-38-4,-7.857719972,O=C(O)c1ccc2cc(C(=O)O)ccc2c1
3004,B-7776,N-diaminophosphoryl-2-nitroaniline,GDPVISFVPDYFPN-UHFFFAOYSA-N,C1=CC=C(C(=C1)NP(=O)(N)N)[N+](=O)[O-],874819-71-3,-2.190464135,NP(N)(=O)Nc1ccccc1[N+](=O)[O-]
3005,B-7777,4-(4-carboxyphenyl)benzoic acid,NEQFBGHQPUXOFH-UHFFFAOYSA-N,C1=CC(=CC=C1C2=CC=C(C=C2)C(=O)O)C(=O)O,084787-70-2,-2.148700558,O=C(O)c1ccc(-c2ccc(C(=O)O)cc2)cc1
3006,B-7778,[[1-(2-amino-1.3-thiazol-4-yl)-2-(1.3-benzothiazol-2-ylsulfanyl)-2-oxoethylidene]amino] acetate,YFYDYMYITUSDEE-WQRHYEAKSA-N,CC(=O)O/N=C(/C1=CSC(=N1)N)\C(=O)SC2=NC3=CC=CC=C3S2,104797-47-9,-6.693765969,CC(=O)ON=C(C(=O)Sc1nc2ccccc2s1)c1csc(N)n1
3007,B-7779,3-tert-butylhexanedioic acid,LHSCNQRBIIDZCB-UHFFFAOYSA-N,CC(C)(C)C(CCC(=O)O)CC(=O)O,010347-88-3,-1.616579242,CC(C)(C)C(CCC(=O)O)CC(=O)O
3008,B-7780,(2Z.6E)-2.6-bis[(4-dodecylphenyl)hydrazinylidene]cyclohex-4-ene-1.3-dione,HSXZUJITRDSCOP-FKEPNHGQSA-N,CCCCCCCCCCCCC1=CC=C(C=C1)N/N=C/2\C=CC(=O)/C(=N/NC3=CC=C(C=C3)CCCCCCCCCCCC)/C2=O,065087-00-5,-8.436015073,CCCCCCCCCCCCc1ccc(NN=c2ccc(=O)c(=NNc3ccc(CCCCCCCCCCCC)cc3)c2=O)cc1
3009,B-7781,1.3.5-tris(2-hydroxyethyl)-1.3.5-triazinane-2.4.6-trione,BPXVHIRIPLPOPT-UHFFFAOYSA-N,C(CO)N1C(=O)N(C(=O)N(C1=O)CCO)CCO,000839-90-7,0.340366328,O=c1n(CCO)c(=O)n(CCO)c(=O)n1CCO
3010,B-7782,4-hydroxy-7-(phenylamino)naphthalene-2-sulfonic acid,YGNDWDUEMICDLW-UHFFFAOYSA-N,C1=CC=C(C=C1)NC2=CC3=CC(=CC(=C3C=C2)O)S(=O)(=O)O,000119-40-4,-2.729428027,O=S(=O)(O)c1cc(O)c2ccc(Nc3ccccc3)cc2c1
3011,B-7783,N-(4-acetamidophenyl)-3-hydroxynaphthalene-2-carboxamide,MSRUOXBBGPWHEG-UHFFFAOYSA-N,CC(=O)NC1=CC=C(C=C1)NC(=O)C2=CC3=CC=CC=C3C=C2O,041506-62-1,-5.250348156,CC(=O)Nc1ccc(NC(=O)c2cc3ccccc3cc2O)cc1
3012,B-7784,(E)-2-cyano-3-(3.4-dimethoxyphenyl)prop-2-enoic acid,DMACYVMZKYRYSL-WEVVVXLNSA-N,COC1=C(C=C(C=C1)/C=C(\C#N)/C(=O)O)OC,037630-52-7,-1.655116089,COc1ccc(C=C(C#N)C(=O)O)cc1OC
3013,B-7785,dimethyl 2-[2-(2-amino-6-chloropurin-9-yl)ethyl]propanedioate,SALNWJHEVGXTER-UHFFFAOYSA-N,COC(=O)C(CCN1C=NC2=C1N=C(N=C2Cl)N)C(=O)OC,172529-93-0,-2.918694889,COC(=O)C(CCn1cnc2c(Cl)nc(N)nc21)C(=O)OC
3014,B-7786,2-(Bis(2-hydroxyethyl)amino)-2-(hydroxymethyl)propane-1.3-diol,OWMVSZAMULFTJU-UHFFFAOYSA-N,C(CO)N(CCO)C(CO)(CO)CO,006976-37-0,0.442704661,OCCN(CCO)C(CO)(CO)CO
3015,B-7787,5-Acetamido-2-aminobenzenesulfonic acid,PHRVJZNHPVJYOM-UHFFFAOYSA-N,CC(=O)NC1=CC(=C(C=C1)N)S(=O)(=O)O,000096-78-6,-1.231843236,CC(=O)Nc1ccc(N)c(S(=O)(=O)O)c1
3016,B-7788,N-[2-amino-4-(4-methyl-6-oxo-4.5-dihydro-1H-pyridazin-3-yl)phenyl]-4-methoxybenzamide,WJMJXFIZZSXKST-UHFFFAOYSA-N,CC1CC(=O)NN=C1C2=CC(=C(C=C2)NC(=O)C3=CC=C(C=C3)OC)N,074149-74-9,-4.654931438,COc1ccc(C(=O)Nc2ccc(C3=NNC(=O)CC3C)cc2N)cc1
3017,B-7789,7-amino-4-hydroxynaphthalene-2-sulfonic acid,KYARBIJYVGJZLB-UHFFFAOYSA-N,C1=CC2=C(C=C(C=C2C=C1N)S(=O)(=O)O)O,000087-02-5,-1.679873592,Nc1ccc2c(O)cc(S(=O)(=O)O)cc2c1
3018,B-7790,bis[2-[2-(2-butoxyethoxy)ethoxy]ethyl] pentanedioate,VYYKGEAVUMSSBR-UHFFFAOYSA-N,CCCCOCCOCCOCCOC(=O)CCCC(=O)OCCOCCOCCOCCCC,065520-42-5,-6.007447508,CCCCOCCOCCOCCOC(=O)CCCC(=O)OCCOCCOCCOCCCC
3019,B-7791,1.3.5-tris(2.3-dibromopropyl)-1.3.5-triazinane-2.4.6-trione,NZUPFZNVGSWLQC-UHFFFAOYSA-N,C(C(CBr)Br)N1C(=O)N(C(=O)N(C1=O)CC(CBr)Br)CC(CBr)Br,052434-90-9,-5.157536519,O=c1n(CC(Br)CBr)c(=O)n(CC(Br)CBr)c(=O)n1CC(Br)CBr
3020,B-7792,(2R.3R)-2.3-bis(benzoyloxy)butanedioic acid,YONLFQNRGZXBBF-ZIAGYGMSSA-N,C1=CC=C(C=C1)C(=O)O[C@H]([C@H](C(=O)O)OC(=O)C2=CC=CC=C2)C(=O)O,002743-38-6,-2.049101436,O=C(OC(C(=O)O)C(OC(=O)c1ccccc1)C(=O)O)c1ccccc1