,C_ID,Name,InChIKey,SMILES,CAS,LogS,smiles_canon
3402,B-8442,ethyl 3.4-dihydro-2H-quinoline-1-carboxylate,YQBRPZBLROENTD-UHFFFAOYSA-N,CCOC(=O)N1CCCC2C1CCCC2,054915-68-3,-4.040456371,CCOC(=O)N1CCCC2CCCCC21
3403,B-8443,5-chloro-2-methoxy-1.3-benzoxazole,SCYNFLAVUZUFTM-UHFFFAOYSA-N,COC1NC2C(O1)CCC(C2)Cl,031080-68-9,-3.015878121,COC1NC2CC(Cl)CCC2O1
3404,B-8444,1-[2-(di(propan-2-yl)amino)ethyl]-4.5-dihydro-3H-1-benzazepin-2-one,PQQWTNHZXGJTDN-UHFFFAOYSA-N,CC(N(C(C)C)CCN1C(=O)CCCC2C1CCCC2)C,054951-16-5,-4.179014591,CC(C)N(CCN1C(=O)CCCC2CCCCC21)C(C)C
3405,B-8445,1-methyl-2-[(E)-2-thiophen-2-ylethenyl]-5.6-dihydro-4H-pyrimidine,YSAUAVHXTIETRK-AATRIKPKSA-N,CN1CCCN=C1/C=C/C1CCCS1,015686-83-6,-4.381381161,CN1CCCN=C1C=CC1CCCS1
3406,B-8446,6-(2-methylpiperidin-1-yl)hexyl benzoate,REXBYBGSZJEITR-UHFFFAOYSA-N,CC1CCCCN1CCCCCCOC(=O)C1CCCCC1,064050-32-4,-4.904589632,CC1CCCCN1CCCCCCOC(=O)C1CCCCC1
3407,B-8447,N'.N'-dimethyl-N-phenyl-N-(phenylmethyl)ethane-1.2-diamine,CHOBRHHOYQKCOU-UHFFFAOYSA-N,CN(CCN(C1CCCCC1)CC1CCCCC1)C,000961-71-7,-2.845571216,CN(C)CCN(CC1CCCCC1)C1CCCCC1
3408,B-8448,1-phenylhexa-2.4-diyn-1-one,RAZOKRUZEQERLH-UHFFFAOYSA-N,CC#CC#CC(=O)C1CCCCC1,000495-74-9,-2.769447074,CC#CC#CC(=O)C1CCCCC1
3409,B-8449,N-ethyl-3-phenyl-N-(3-phenylpropyl)propan-1-amine,ZPFXAOWNKLFJDN-UHFFFAOYSA-N,CCN(CCCC1CCCCC1)CCCC1CCCCC1,000150-59-4,-5.025980708,CCN(CCCC1CCCCC1)CCCC1CCCCC1
3410,B-8450,4-bromo-1H-pyrazole,WVGCPEDBFHEHEZ-UHFFFAOYSA-N,BrC1C[NH]NC1,002075-45-8,-1.084458128,BrC1CNNC1
3411,B-8451,pyridin-2-ylmethanethiol,SJIIDWBFRZACDQ-UHFFFAOYSA-N,SCC1CCCCN1,002044-73-7,0.078525089,SCC1CCCCN1
3412,B-8453,5-(2-methylpiperidin-1-yl)pentyl benzoate,ONEJOFKVJCCUOT-UHFFFAOYSA-N,CC1CCCCN1CCCCCOC(=O)C1CCCCC1,064050-33-5,-4.382345808,CC1CCCCN1CCCCCOC(=O)C1CCCCC1
3413,B-8458,3-hydroxychromen-2-one,MJKVTPMWOKAVMS-UHFFFAOYSA-N,O=C1OC2CCCCC2CC1O,000939-19-5,-0.919866271,O=C1OC2CCCCC2CC1O
3414,B-8462,2-Phenyl-1.3-dithiane,GXKPARDRBFURON-UHFFFAOYSA-N,C1CSC(SC1)C1CCCCC1,005425-44-5,-3.888144102,C1CCC(C2SCCCS2)CC1
3415,B-8463,[(1R.5S)-8-methyl-8-azabicyclo[3.2.1]octan-3-yl] benzoate,XQJMXPAEFMWDOZ-PBWFPOADSA-N,CN1[C@@H]2CC[C@H]1CC(C2)OC(=O)C1CCCCC1,019145-60-9,-2.159287593,CN1C2CCC1CC(OC(=O)C1CCCCC1)C2
3416,B-8464,3-(6.7.8.9.10.11-hexahydrocycloocta[b]indol-5-yl)-N.N-dimethylpropan-1-amine,PLIGPBGDXASWPX-UHFFFAOYSA-N,CN(CCCN1C2CCCCCCC2C2C1CCCC2)C,005560-72-5,-5.166199613,CN(C)CCCN1C2CCCCCCC2C2CCCCC21
3417,B-8467,2-piperazin-1-ylpyrimidine,MRBFGEHILMYPTF-UHFFFAOYSA-N,N1CCN(CC1)C1NCCCN1,125523-53-7,0.19011219,C1CNC(N2CCNCC2)NC1
3418,B-8469,N-methyl-3-(2-tricyclo[9.4.0.03.8]pentadeca-1(15).3.5.7.11.13-hexaenylidene)propan-1-amine,PHVGLTMQBUFIQQ-UHFFFAOYSA-N,CNCCC=C1C2CCCCC2CCC2C1CCCC2,000072-69-5,-5.269219539,CNCCC=C1C2CCCCC2CCC2CCCCC12
3419,B-8470,3-(2-pentylpiperidin-1-yl)propyl benzoate,SRZOHCZNOHUVHY-UHFFFAOYSA-N,CCCCCC1CCCCN1CCCOC(=O)C1CCCCC1,064050-38-0,-5.426159821,CCCCCC1CCCCN1CCCOC(=O)C1CCCCC1
3420,B-8472,3-(1-ethyl-5.5-dimethylpyrrolidin-2-yl)-1H-indole,XAQRHUZUBSOOSY-UHFFFAOYSA-N,CCN1C(CCC1(C)C)C1C[NH]C2C1CCCC2,019137-79-2,-2.659377174,CCN1C(C2CNC3CCCCC32)CCC1(C)C
3421,B-8473,1-(1-phenylpropan-2-yl)-2-propan-2-ylhydrazine,XFCDHFGTGWBPIE-UHFFFAOYSA-N,CC(CC1CCCCC1)NNC(C)C,005177-60-6,-2.9659295,CC(C)NNC(C)CC1CCCCC1
3422,B-8474,(6aR.10aS)-6.6.9-trimethyl-3-pentyl-6a.7.8.10a-tetrahydrobenzo[c]chromen-1-ol,CYQFCXCEBYINGO-DLBZAZTESA-N,CCCCCC1CC(O)C2C(C1)OC([C@H]1[C@@H]2C=C(C)CC1)(C)C,006087-73-6,-6.866134053,CCCCCC1CC(O)C2C(C1)OC(C)(C)C1CCC(C)=CC21
3423,B-8477,3-(2-methylpiperidin-1-yl)propyl 4-iodobenzoate,BLAAWVPMHICNCQ-UHFFFAOYSA-N,IC1CCC(CC1)C(=O)OCCCN1CCCCC1C,063916-89-2,-5.25355,CC1CCCCN1CCCOC(=O)C1CCC(I)CC1
3424,B-8478,3-(1-methylpyrrolidin-2-yl)-1H-indole,FNTDGCHSJHAFAV-UHFFFAOYSA-N,CN1CCCC1C1C[NH]C2C1CCCC2,007236-83-1,-1.574107168,CN1CCCC1C1CNC2CCCCC21
3425,B-8479,2.3-DIMETHYLBENZOIC ACID,RIZUCYSQUWMQLX-UHFFFAOYSA-N,OC(=O)C1CCCC(C1C)C,000603-79-2,-2.540115528,CC1CCCC(C(=O)O)C1C
3426,B-8480,N.N-dimethyl-3-pyrido[3.2-b][1.4]benzothiazin-10-ylpropan-1-amine,JTTAUPUMOLRVRA-UHFFFAOYSA-N,CN(CCCN1C2CCCCC2SC2C1NCCC2)C,000303-69-5,-3.218678564,CN(C)CCCN1C2CCCCC2SC2CCCNC21
3427,B-8483,3-(2-propan-2-ylpiperidin-1-yl)propyl benzoate,KCVRSLICXICRCK-UHFFFAOYSA-N,CC(C1CCCCN1CCCOC(=O)C1CCCCC1)C,063916-94-9,-4.318512253,CC(C)C1CCCCN1CCCOC(=O)C1CCCCC1
3428,B-8486,1-[(4-chlorophenyl)-phenylmethyl]-4-methyl-1.4-diazepane,WEUCDJCFJHYFRL-UHFFFAOYSA-N,CN1CCCN(CC1)C(C1CCC(CC1)Cl)C1CCCCC1,142860-95-5,-3.9905273,CN1CCCN(C(C2CCCCC2)C2CCC(Cl)CC2)CC1
3429,B-8487,1.2-benzothiazole-3-carboxylic acid,KTORKRBAIRTBCP-UHFFFAOYSA-N,OC(=O)C1NSC2C1CCCC2,040991-34-2,-2.259444101,O=C(O)C1NSC2CCCCC21
3430,B-8488,3-(2-methylpiperidin-1-yl)propyl 2-phenylbutanoate,GMKRJJQRDLKNHL-UHFFFAOYSA-N,CCC(C1CCCCC1)C(=O)OCCCN1CCCCC1C,063867-24-3,-4.637604256,CCC(C(=O)OCCCN1CCCCC1C)C1CCCCC1
3431,B-8489,3-[(4-chlorophenyl)-phenylmethyl]-8-methyl-3.8-diazabicyclo[3.2.1]octane,WDECDYIZHLLLNN-UHFFFAOYSA-N,ClC1CCC(CC1)C(C1CCCCC1)N1CC2CCC(C1)N2C,063977-84-4,-4.387267621,CN1C2CCC1CN(C(C1CCCCC1)C1CCC(Cl)CC1)C2
3432,B-8491,1-(2-hydroxy-5-methoxyphenyl)propan-1-one,MLDZAGGFWSAWHF-UHFFFAOYSA-N,CCC(=O)C1CC(OC)CCC1O,049710-99-8,-2.106542904,CCC(=O)C1CC(OC)CCC1O
3433,B-8492,4-(2-methylpiperidin-1-yl)butyl benzoate,UFMAXJGHHZKXIO-UHFFFAOYSA-N,CC1CCCCN1CCCCOC(=O)C1CCCCC1,064050-30-2,-3.86131211,CC1CCCCN1CCCCOC(=O)C1CCCCC1
3434,B-8493,(E)-4-phenylbut-3-en-2-one,BWHOZHOGCMHOBV-BQYQJAHWSA-N,CC(=O)/C=C/C1CCCCC1,001896-62-4,-2.036192411,CC(=O)C=CC1CCCCC1
3435,B-8495,3-bromobenzo[b]phenalen-7-one,WVECFEIAZAKUNF-UHFFFAOYSA-N,O=C1C2CCCCC2C2C3C1CCCC3C(CC2)Br,000081-96-9,-7.359852329,O=C1C2CCCCC2C2CCC(Br)C3CCCC1C32
3436,B-8498,(1S.2R)-2-methylamino-1-phenylpropan-1-ol,KWGRBVOPPLSCSI-PSASIEDQSA-N,CN[C@@H]([C@H](C1CCCCC1)O)C,000321-98-2,-0.41999999,CNC(C)C(O)C1CCCCC1
3437,B-8501,(1S.4S)-4-(3.4-dichlorophenyl)-N-methyl-1.2.3.4-tetrahydronaphthalen-1-amine,VGKDLMBJGBXTGI-SJCJKPOMSA-N,CN[C@H]1CC[C@H](C2C1CCCC2)C1CCC(C(C1)Cl)Cl	,079617-96-2,-4.83,CNC1CCC(C2CCC(Cl)C(Cl)C2)C2CCCCC12
3438,B-8503,3-(2-methylpiperidin-1-yl)propyl 4-methylbenzoate,HYYCSBXRMNMNBN-UHFFFAOYSA-N,CC1CCC(CC1)C(=O)OCCCN1CCCCC1C,063980-11-0,-4.272633985,CC1CCC(C(=O)OCCCN2CCCCC2C)CC1
3439,B-8504,2.4.5-TRIMETHYLBENZOIC ACID,QENJZWZWAWWESF-UHFFFAOYSA-N,CC1CC(C(=O)O)C(CC1C)C,000528-90-5,-3.108173736,CC1CC(C)C(C(=O)O)CC1C
3440,B-8505,4-(dimethylaminomethyl)-2.6-dimethylphenol,LCWKIAHCEIHHJE-UHFFFAOYSA-N,CN(CC1CC(C)C(C(C1)C)O)C,042900-95-8,-0.937520315,CC1CC(CN(C)C)CC(C)C1O
3441,B-8506,2-[1.1-di(phenyl)ethoxy]-N.N-dimethylethanamine,BBIMHFSPNXQFAH-UHFFFAOYSA-N,CN(CCOC(C1CCCCC1)(C1CCCCC1)C)C,003572-74-5,-3.197128236,CN(C)CCOC(C)(C1CCCCC1)C1CCCCC1
3442,B-8507,N-(2.4.5-Trichlorophenyl)acetamide,VUSLTUGEJURGLB-UHFFFAOYSA-N,CC(=O)NC1CC(Cl)C(CC1Cl)Cl,023627-24-9,-3.049094212,CC(=O)NC1CC(Cl)C(Cl)CC1Cl
3443,B-8508,1-methyl-3H-indol-2-one,RSQUAQMIGSMNNE-UHFFFAOYSA-N,O=C1CC2C(N1C)CCCC2,000061-70-1,-1.018620834,CN1C(=O)CC2CCCCC21
3444,B-8509,3-(3.4-dimethoxyphenyl)-2.3.4.6.7.8.9.9a-octahydro-1H-quinolizine,WWZYSFVVLXIGSX-UHFFFAOYSA-N,COC1CC(CCC1OC)C1CCC2N(C1)CCCC2,063716-68-7,-3.398558635,COC1CCC(C2CCC3CCCCN3C2)CC1OC
3445,B-8513,2-diethylaminoethyl pyridine-3-carboxylate,JVWOCHRRAWHKLT-UHFFFAOYSA-N,CCN(CCOC(=O)C1CCCNC1)CC,003099-52-3,-0.433314049,CCN(CC)CCOC(=O)C1CCCNC1
3446,B-8514,7-chloro-5-phenyl-3H-1.4-benzodiazepine,GIVYEEPCHMGCEK-UHFFFAOYSA-N,ClC1CCC2C(C1)C(=NCC=N2)C1CCCCC1,016398-00-8,-4.193870327,ClC1CCC2N=CCN=C(C3CCCCC3)C2C1
3447,B-8515,2-methoxy-1.2-di(phenyl)ethanone,BQZJOQXSCSZQPS-UHFFFAOYSA-N,COC(C(=O)C1CCCCC1)C1CCCCC1,003524-62-7,-2.683648951,COC(C(=O)C1CCCCC1)C1CCCCC1
3448,B-8516,(4-Methylphenyl)hydrazine,XAMBIJWZVIZZOG-UHFFFAOYSA-N,NNC1CCC(CC1)C,000539-44-6,-1.238779012,CC1CCC(NN)CC1
3449,B-8517,(2Z)-1-(4-chlorophenyl)-2-(diethylhydrazinylidene)ethanone,LVHCUONWHLDNDW-ZROIWOOFSA-N,CCN(/N=C\C(=O)C1CCC(CC1)Cl)CC,024346-21-2,-2.971339529,CCN(CC)N=CC(=O)C1CCC(Cl)CC1
3450,B-8518,N-(phenylmethyl)but-3-yn-2-amine,DRBAJMGSRKIURK-UHFFFAOYSA-N,CC(C#C)NCC1CCCCC1,063991-03-7,-1.202899781,C#CC(C)NCC1CCCCC1
3451,B-8520,6.7-dihydro-5H-benzo[d][2]benzazepine,FHYFQRCUSZETDW-UHFFFAOYSA-N,C1CCC2C(C1)C1CCCCC1CNC2,006672-69-1,-3.496834021,C1CCC2C(C1)CNCC1CCCCC12
3452,B-8521,N.N-dimethyl-N'-pyridin-2-ylethane-1.2-diamine,PBPMFHCGVZTYHV-UHFFFAOYSA-N,CN(CCNC1CCCCN1)C,023826-72-4,-0.05975272,CN(C)CCNC1CCCCN1
3453,B-8523,(1R.2R)-2-(dimethylaminomethyl)-1-(3-methoxyphenyl)cyclohexan-1-ol,TVYLLZQTGLZFBW-ZBFHGGJFSA-N,COC1CCCC(C1)[C@@]1(O)CCCC[C@@H]1CN(C)C,027203-92-5,-2.359509135,COC1CCCC(C2(O)CCCCC2CN(C)C)C1
3454,B-8524,(2-methyl-2-propylaminopropyl) benzoate,VXJABHHJLXLNMP-UHFFFAOYSA-N,CCCNC(COC(=O)C1CCCCC1)(C)C,000495-70-5,-2.248800835,CCCNC(C)(C)COC(=O)C1CCCCC1
3455,B-8525,1-phenyl-3-(propan-2-ylamino)propan-2-ol,SHNJNXNMYKGBGP-UHFFFAOYSA-N,OC(CC1CCCCC1)CNC(C)C,019343-25-0,-1.214327356,CC(C)NCC(O)CC1CCCCC1
3456,B-8528,ethyl N-cyclopropyl-N-(phenylmethyl)carbamate,OGXBVBBMMWSZJO-UHFFFAOYSA-N,CCOC(=O)N(C1CC1)CC1CCCCC1,002521-01-9,-3.669834102,CCOC(=O)N(CC1CCCCC1)C1CC1
3457,B-8529,3-(2-methylpiperidin-1-yl)propyl furan-2-carboxylate,BUEGMKXWTLQONM-UHFFFAOYSA-N,CC1CCCCN1CCCOC(=O)C1CCCO1,063938-46-5,-2.516575984,CC1CCCCN1CCCOC(=O)C1CCCO1
3458,B-8530,2-chloro-N.N-bis(phenylmethyl)ethanamine,GSLWSSUWNCJILM-UHFFFAOYSA-N,ClCCN(CC1CCCCC1)CC1CCCCC1,000051-50-3,-3.673449115,ClCCN(CC1CCCCC1)CC1CCCCC1
3459,B-8531,(1R.5S)-3-[di(phenyl)methoxy]-8-methyl-8-azabicyclo[3.2.1]octane,GIJXKZJWITVLHI-YOFSQIOKSA-N,CN1[C@@H]2CC[C@H]1CC(C2)OC(C1CCCCC1)C1CCCCC1,000132-17-2,-4.091556801,CN1C2CCC1CC(OC(C1CCCCC1)C1CCCCC1)C2
3460,B-8532,methyl 2-[(2.6-dichloro-3-methylphenyl)amino]benzoate,IZZWHVDZJOINFQ-UHFFFAOYSA-N,COC(=O)C1CCCCC1NC1C(Cl)CCC(C1Cl)C,003254-79-3,-6.856121657,COC(=O)C1CCCCC1NC1C(Cl)CCC(C)C1Cl
3461,B-8533,2-[1-(4-chlorophenyl)-1-phenylethoxy]-N.N-dimethylethanamine,KKHPNPMTPORSQE-UHFFFAOYSA-N,CN(CCOC(C1CCC(CC1)Cl)(C1CCCCC1)C)C,000077-38-3,-3.9983308,CN(C)CCOC(C)(C1CCCCC1)C1CCC(Cl)CC1
3462,B-8534,1-(2-methylpiperidin-1-yl)propan-2-yl benzoate,AOHWZLNRXYUCPR-UHFFFAOYSA-N,CC(OC(=O)C1CCCCC1)CN1CCCCC1C,064050-28-8,-3.277368327,CC(CN1CCCCC1C)OC(=O)C1CCCCC1
3463,B-8535,14-chloro-7-azatricyclo[9.4.0.03.8]pentadeca-1(11).3(8).4.6.12.14-hexaen-2-one,SVWFQLTYQIKJRN-UHFFFAOYSA-N,ClC1CCC2C(C1)C(=O)C1CCCNC1CC2,031721-92-3,-5.494743105,O=C1C2CC(Cl)CCC2CCC2NCCCC12
3464,B-8536,2-(2-chlorophenyl)-2-methylaminocyclohexan-1-one,YQEZLKZALYSWHR-UHFFFAOYSA-N,CNC1(CCCCC1=O)C1CCCCC1Cl,006740-88-1,-1.929230818,CNC1(C2CCCCC2Cl)CCCCC1=O
3465,B-8537,1-(1.3-Benzodioxol-5-yl)propan-1-one,RVBJGSPBFIUTTR-UHFFFAOYSA-N,CCC(=O)C1CCC2C(C1)OCO2,028281-49-4,-2.402686899,CCC(=O)C1CCC2OCOC2C1
3466,B-8538,1-(2H-quinolin-1-yl)ethanone,VGEPKKUTRKZFEW-UHFFFAOYSA-N,CC(=O)N1CC=CC2C1CCCC2,010174-55-7,-1.863837152,CC(=O)N1CC=CC2CCCCC21
3467,B-8540,3-methylchromen-2-one,VIIIJFZJKFXOGG-UHFFFAOYSA-N,O=C1OC2CCCCC2CC1C,001333-47-7,-2.394824933,CC1CC2CCCCC2OC1=O
3468,B-8542,1-[(2-methyl-1-phenylpropan-2-yl)amino]propan-2-ol,QHESLVVDHLELBB-UHFFFAOYSA-N,CC(CNC(CC1CCCCC1)(C)C)O,021564-62-5,-1.514545658,CC(O)CNC(C)(C)CC1CCCCC1
3469,B-8545,3-(5-ethyl-1-methylpyrrolidin-2-yl)-1H-indole,SCSHLMQESUQPEU-UHFFFAOYSA-N,CCC1CCC(N1C)C1C[NH]C2C1CCCC2,019369-07-4,-2.554440662,CCC1CCC(C2CNC3CCCCC32)N1C
3470,B-8546,3-(1.5.5-trimethylpyrrolidin-2-yl)-1H-indole,CTLWQMICLDLMLR-UHFFFAOYSA-N,CN1C(CCC1(C)C)C1C[NH]C2C1CCCC2,019137-80-5,-2.138472007,CN1C(C2CNC3CCCCC32)CCC1(C)C
3471,B-8547,N.N'-di(propan-2-yl)-6-propyl-1.3.5-triazine-2.4-diamine,YFBIGPNGRMQOOT-UHFFFAOYSA-N,CCCC1NC(NC(C)C)NC(N1)NC(C)C,026235-20-1,-4.45059507,CCCC1NC(NC(C)C)NC(NC(C)C)N1
3472,B-8553,1.2-di(phenyl)ethanamine,DTGGNTMERRTPLR-UHFFFAOYSA-N,NC(C1CCCCC1)CC1CCCCC1,025611-78-3,-2.360485844,NC(CC1CCCCC1)C1CCCCC1
3473,B-8555,2-hydroxy-N.N-dimethylbenzamide,UBAYZMJYXBTDBB-UHFFFAOYSA-N,CN(C(=O)C1CCCCC1O)C,001778-08-1,-0.200955672,CN(C)C(=O)C1CCCCC1O
3474,B-8556,1.1-dihydroxy-2-pyridin-2-ylhydrazine,VLZLEPNAKIFDQJ-UHFFFAOYSA-N,[O-][N+](=O)NC1CCCCN1,103769-75-1,-0.660497255,O=[N+]([O-])NC1CCCCN1
3475,B-8558,1-methyl-N-phenyl-N-(phenylmethyl)piperidin-4-amine,VZSXTYKGYWISGQ-UHFFFAOYSA-N,CN1CCC(CC1)N(C1CCCCC1)CC1CCCCC1,004945-47-5,-4.086451232,CN1CCC(N(CC2CCCCC2)C2CCCCC2)CC1
3476,B-8560,4-hexoxyaniline,DJRKHTCUXRGYEU-UHFFFAOYSA-N,CCCCCCOC1CCC(CC1)N,039905-57-2,-3.696259762,CCCCCCOC1CCC(N)CC1
3477,B-8562,5-bromopyridine-3-carboxylic acid,FQIUCPGDKPXSLL-UHFFFAOYSA-N,OC(=O)C1CC(Br)CNC1,020826-04-4,-2.01980911,O=C(O)C1CNCC(Br)C1
3478,B-8564,(3.3.5-trimethylcyclohexyl) 2-hydroxy-2-phenylacetate,WZHCOOQXZCIUNC-UHFFFAOYSA-N,CC1CC(OC(=O)C(C2CCCCC2)O)CC(C1)(C)C,028283-32-1,-3.972857674,CC1CC(OC(=O)C(O)C2CCCCC2)CC(C)(C)C1
3479,B-8565,3-(2-methylpiperidin-1-yl)propyl 4-cyclohexylbenzoate,HVZBLYFIPJDENZ-UHFFFAOYSA-N,CC1CCCCN1CCCOC(=O)C1CCC(CC1)C1CCCCC1,063916-72-3,-6.342816039,CC1CCCCN1CCCOC(=O)C1CCC(C2CCCCC2)CC1
3480,B-8566,3-(2-methylpiperidin-1-yl)propyl 4-bromobenzoate,XTBYBRINUMAOSK-UHFFFAOYSA-N,BrC1CCC(CC1)C(=O)OCCCN1CCCCC1C,063916-64-3,-4.673876897,CC1CCCCN1CCCOC(=O)C1CCC(Br)CC1
3481,B-8567,2-chloro-N-(2-chloroethyl)-N-(phenylmethyl)ethanamine,VLWJKVNMRMHPCC-UHFFFAOYSA-N,ClCCN(CC1CCCCC1)CCCl,000055-51-6,-2.649761584,ClCCN(CCCl)CC1CCCCC1
3482,B-8568,1-[2-[(4-chlorophenyl)-phenylmethoxy]ethyl]piperidine,FLNXBVJLPJNOSI-UHFFFAOYSA-N,ClC1CCC(CC1)C(C1CCCCC1)OCCN1CCCCC1,014984-68-0,-4.962882983,ClC1CCC(C(OCCN2CCCCC2)C2CCCCC2)CC1
3483,B-8569,3.5-dimethyl-4-methylsulfanylphenol,JGFZITGNFAVSKU-UHFFFAOYSA-N,CSC1C(C)CC(CC1C)O,007379-51-3,-2.588475668,CSC1C(C)CC(O)CC1C
3484,B-8571,2-dimethylaminoethyl pyridine-3-carboxylate,JNGIYILIWDVASL-UHFFFAOYSA-N,CN(CCOC(=O)C1CCCNC1)C,021937-63-3,0.102609875,CN(C)CCOC(=O)C1CCCNC1
3485,B-8572,(E)-N-ethyl-N-(2-methylphenyl)but-2-enamide,DNTGGZPQPQTDQF-XBXARRHUSA-N,C/C=C/C(=O)N(C1CCCCC1C)CC,000483-63-6,-2.568295735,CC=CC(=O)N(CC)C1CCCCC1C
3486,B-8573,N.N-diethyl-2-(3-phenyl-1.2.4-oxadiazol-5-yl)ethanamine,IDCHQQSVJAAUQQ-UHFFFAOYSA-N,CCN(CCC1ONC(N1)C1CCCCC1)CC,000959-14-8,-1.501957543,CCN(CC)CCC1NC(C2CCCCC2)NO1
3487,B-8575,2-methyl-3-[(E.7R.11R)-3.7.11.15-tetramethylhexadec-2-enyl]naphthalene-1.4-dione,MBWXNTAXLNYFJB-NKFFZRIASA-N,C[C@H](CCC[C@@H](CCCC(C)C)C)CCC/C(=C/CC1=C(C)C(=O)C2C(C1=O)CCCC2)/C,011104-38-4,-11.96103678,CC(=CCC1=C(C)C(=O)C2CCCCC2C1=O)CCCC(C)CCCC(C)CCCC(C)C
3488,B-8577,2-cyclohexyloxy-4-(2-dimethylaminoethyl)phenol,JKBZITVKMZPLJW-UHFFFAOYSA-N,CN(CCC1CCC(C(C1)OC1CCCCC1)O)C,064047-86-5,-3.213758583,CN(C)CCC1CCC(O)C(OC2CCCCC2)C1
3489,B-8579,8-hydroxy-3-methylisochroman-1-one,KWILGNNWGSNMPA-UHFFFAOYSA-N,CC1CC2CCCC(C2C(=O)O1)O,017397-85-2,-1.969842649,CC1CC2CCCC(O)C2C(=O)O1
3490,B-8580,1-(4-propan-2-ylphenyl)propan-2-ylhydrazine,PVNRNJYIJJGSRB-UHFFFAOYSA-N,NNC(CC1CCC(CC1)C(C)C)C,016603-16-0,-2.9659295,CC(CC1CCC(C(C)C)CC1)NN
3491,B-8584,4-(phenoxy)benzaldehyde,QWLHJVDRPZNVBS-UHFFFAOYSA-N,O=CC1CCC(CC1)OC1CCCCC1,000067-36-7,-3.86418035,O=CC1CCC(OC2CCCCC2)CC1
3492,B-8585,N-methyl-N-(phenylmethyl)prop-2-yn-1-amine,DPWPWRLQFGFJFI-UHFFFAOYSA-N,CN(CC1CCCCC1)CC#C,000555-57-7,-1.026518509,C#CCN(C)CC1CCCCC1
3493,B-8586,1-phenyl-2-pyrrolidin-1-yliminoethanone,BHSRBJWYRHNBNG-UHFFFAOYSA-N,O=C(C1CCCCC1)C=NN1CCCC1,024342-45-8,-2.057930295,O=C(C=NN1CCCC1)C1CCCCC1
3494,B-8588,5-chloro-3-ethyl-1.3-benzoxazol-2-one,NGNSUTIRTDXXGA-UHFFFAOYSA-N,CCN1C2CC(Cl)CCC2OC1=O,005790-91-0,-3.057780397,CCN1C(=O)OC2CCC(Cl)CC21
3495,B-8589,(2Z)-1-(4-chlorophenyl)-2-(dimethylhydrazinylidene)ethanone,KUZRSCRQPYFUKP-GHXNOFRVSA-N,CN(/N=C\C(=O)C1CCC(CC1)Cl)C,024346-19-8,-1.927384794,CN(C)N=CC(=O)C1CCC(Cl)CC1
3496,B-8590,6.6.9-trimethyl-3-(3-methyloctan-2-yl)-7.8.9.10-tetrahydrobenzo[c]chromen-1-ol,QBEFIFWEOSUTKV-UHFFFAOYSA-N,CCCCCC(C(C1CC(O)C2C(C1)OC(C1=C2CC(C)CC1)(C)C)C)C,032904-22-6,-9.471968324,CCCCCC(C)C(C)C1CC(O)C2C3=C(CCC(C)C3)C(C)(C)OC2C1
3497,B-8592,5-chloro-N-methyl-1.3-benzoxazol-2-amine,JCDFYLCJMXKBNO-UHFFFAOYSA-N,CNC1NC2C(O1)CCC(C2)Cl,064037-24-7,-2.763206844,CNC1NC2CC(Cl)CCC2O1
3498,B-8594,6-bromonaphthalen-2-ol,YLDFTMJPQJXGSS-UHFFFAOYSA-N,OC1CCC2C(C1)CCC(C2)Br,015231-91-1,-3.303116242,OC1CCC2CC(Br)CCC2C1
3499,B-8595,diethyl benzene-1.4-dicarboxylate,ONIHPYYWNBVMID-UHFFFAOYSA-N,CCOC(=O)C1CCC(CC1)C(=O)OCC,000636-09-9,-2.719456391,CCOC(=O)C1CCC(C(=O)OCC)CC1
3500,B-8596,3-(2-methylpiperidin-1-yl)propyl 4-(2-methylpropoxy)benzoate,LDHRPGPXSCBURF-UHFFFAOYSA-N,CC(COC1CCC(CC1)C(=O)OCCCN1CCCCC1C)C,063916-90-5,-5.128607667,CC(C)COC1CCC(C(=O)OCCCN2CCCCC2C)CC1
3501,B-8597,2-methylpropyl 2-(2-dimethylaminoethoxy)-6-methyl-3-propan-2-ylbenzoate,SYFXJBNDAATWMO-UHFFFAOYSA-N,CC(COC(=O)C1C(C)CCC(C1OCCN(C)C)C(C)C)C,053206-74-9,-4.814281372,CC(C)COC(=O)C1C(C)CCC(C(C)C)C1OCCN(C)C
3502,B-8599,6-ethyl-N.N'-di(propan-2-yl)-1.3.5-triazine-2.4-diamine,BLISXILRWQPCCP-UHFFFAOYSA-N,CCC1NC(NC(C)C)NC(N1)NC(C)C,026235-14-3,-3.928979669,CCC1NC(NC(C)C)NC(NC(C)C)N1
3503,B-8600,2-(4-nitrophenyl)-1.3-benzoxazole,KLOXEYMSPNBMHD-UHFFFAOYSA-N,[O-][N+](=O)C1CCC(CC1)C1NC2C(O1)CCCC2,000840-58-4,-4.160497459,O=[N+]([O-])C1CCC(C2NC3CCCCC3O2)CC1
3504,B-8601,3-(2-methylpiperidin-1-yl)propyl 4-(3-methylbutyl)benzoate,SVWGJWSFYJTBFL-UHFFFAOYSA-N,CC(CCC1CCC(CC1)C(=O)OCCCN1CCCCC1C)C,063916-91-6,-5.932772568,CC(C)CCC1CCC(C(=O)OCCCN2CCCCC2C)CC1
3505,B-8602,1-[4.5-di(phenyl)-1.3-oxazol-2-yl]piperidine,NAVVOYFFGOHKJL-UHFFFAOYSA-N,C1CCN(CC1)C1NC(C(O1)C1CCCCC1)C1CCCCC1,020503-73-5,-6.458128809,C1CCC(C2NC(N3CCCCC3)OC2C2CCCCC2)CC1
3506,B-8603,5-chloro-3-methyl-1.3-benzoxazol-2-one,VORWOQGVKPXSCM-UHFFFAOYSA-N,ClC1CCC2C(C1)N(C)C(=O)O2,005790-90-9,-2.535497605,CN1C(=O)OC2CCC(Cl)CC21
3507,B-8606,2-Phenylbut-3-yn-2-ol,KSLSOBUAIFEGLT-UHFFFAOYSA-N,C#CC(C1CCCCC1)(O)C,131491-51-5,-1.192665559,C#CC(C)(O)C1CCCCC1
3508,B-8610,1-(4-chlorophenyl)-3-piperidin-1-ylpyrrolidin-2-one,GXGWQUTZOBNBNJ-UHFFFAOYSA-N,O=C1C(CCN1C1CCC(CC1)Cl)N1CCCCC1,006103-61-3,-3.662072923,O=C1C(N2CCCCC2)CCN1C1CCC(Cl)CC1
3509,B-8611,10-(cyclopropylmethyl)-1.13-dimethyl-10-azatricyclo[7.3.1.02.7]trideca-2(7).3.5-trien-4-ol,YQYVFVRQLZMJKJ-UHFFFAOYSA-N,OC1CCC2C(C1)C1(C)CCN(C(C2)C1C)CC1CC1,003572-80-3,-4.321681952,CC1C2CC3CCC(O)CC3C1(C)CCN2CC1CC1
3510,B-8614,5-methyl-3-(1-methylpyrrolidin-2-yl)-1H-indole,SMMNJQNEWMPPDF-UHFFFAOYSA-N,CN1CCCC1C1C[NH]C2C1CC(C)CC2,019137-69-0,-2.143525768,CC1CCC2NCC(C3CCCN3C)C2C1
3511,B-8615,3.5-ditert-butyl-4-hydroxybenzaldehyde,DOZRDZLFLOODMB-UHFFFAOYSA-N,O=CC1CC(C(C(C1)C(C)(C)C)O)C(C)(C)C,001620-98-0,-3.916526232,CC(C)(C)C1CC(C=O)CC(C(C)(C)C)C1O
3512,B-8617,3-dimethylamino-1-phenylpropan-1-one,QMNXJNURJISYMS-UHFFFAOYSA-N,CN(CCC(=O)C1CCCCC1)C,003506-36-3,-0.657514262,CN(C)CCC(=O)C1CCCCC1
3513,B-8618,6-Chloro-3.4-dihydro-1H-2.3-benzoxazine,JGGHXZUTECPTAK-UHFFFAOYSA-N,ClC1CCC2C(C1)CNOC2,021977-33-3,-2.452745149,ClC1CCC2CONCC2C1
3514,B-8619,1-(1.3-benzodioxol-5-ylmethyl)piperazine,NBOOZXVYXHATOW-UHFFFAOYSA-N,N1CCN(CC1)CC1CCC2C(C1)OCO2,032231-06-4,-0.808933189,C1CN(CC2CCC3OCOC3C2)CCN1
3515,B-8623,1-[[1-(4-chlorophenyl)-2-methylpropan-2-yl]amino]propan-2-ol,DUJCNGWLFREXBE-UHFFFAOYSA-N,CC(CNC(CC1CCC(CC1)Cl)(C)C)O,021564-60-3,-2.315196789,CC(O)CNC(C)(C)CC1CCC(Cl)CC1
3516,B-8624,3-ethyl-1.3-benzoxazol-2-one,CQEWMIYTLWJAAY-UHFFFAOYSA-N,CCN1C(=O)OC2C1CCCC2,030741-06-1,-2.255528059,CCN1C(=O)OC2CCCCC21
3517,B-8626,2-(2-methoxyphenyl)-1.3-dithiolane,JKPYCJKJEBIDIG-UHFFFAOYSA-N,COC1CCCCC1C1SCCS1,024588-76-9,-3.654903275,COC1CCCCC1C1SCCS1
3518,B-8627,(3Z)-3-(6H-benzo[c][1]benzoxepin-11-ylidene)-N.N-dimethylpropan-1-amine,ODQWQRRAPPTVAG-BOPFTXTBSA-N,CN(CC/C=C/1\C2CCCCC2OCC2C1CCCC2)C,003607-18-9,-3.4000001,CN(C)CCC=C1C2CCCCC2COC2CCCCC12
3519,B-8628,6-(4-methylpiperazin-1-yl)-11H-benzo[c][1]benzazepine,PWRPUAKXMQAFCJ-UHFFFAOYSA-N,CN1CCN(CC1)C1=NC2CCCCC2CC2C1CCCC2,001977-11-3,-3.215532966,CN1CCN(C2=NC3CCCCC3CC3CCCCC23)CC1
3520,B-8629,2-[(4-tert-butyl-2.6-dimethylphenyl)methyl]-4.5-dihydro-1H-imidazole,HUCJFAOMUPXHDK-UHFFFAOYSA-N,CC1CC(CC(C1CC1=NCCN1)C)C(C)(C)C,000526-36-3,-6.190513001,CC1CC(C(C)(C)C)CC(C)C1CC1=NCCN1
3521,B-8630,bis(2-methylpropyl) benzene-1.4-dicarboxylate,LQKWPGAPADIOSS-UHFFFAOYSA-N,CC(COC(=O)C1CCC(CC1)C(=O)OCC(C)C)C,018699-48-4,-4.741468743,CC(C)COC(=O)C1CCC(C(=O)OCC(C)C)CC1