,C_ID,Name,InChIKey,SMILES,CAS,LogS,smiles_canon
3868,B-9097,3-methoxy-4-(piperidin-1-ylmethyl)xanthen-9-one,PYSOHOOUXFWCFF-UHFFFAOYSA-N,COC1CCC2C(C1CN1CCCCC1)OC1C(C2=O)CCCC1,017854-59-0,-5.558537514,COC1CCC2C(=O)C3CCCCC3OC2C1CN1CCCCC1
3869,B-9098,ethyl 2-(3-dimethylamino-2-hydroxypropoxy)-6-methyl-3-propan-2-ylbenzoate,SNFZSVZRZFZVIV-UHFFFAOYSA-N,CCOC(=O)C1C(C)CCC(C1OCC(CN(C)C)O)C(C)C,053251-81-3,-3.157601824,CCOC(=O)C1C(C)CCC(C(C)C)C1OCC(O)CN(C)C
3870,B-9099,1-(3-methyl-3.8-diazabicyclo[3.2.1]octan-8-yl)-2-[4-(2-methylpropyl)phenyl]ethanone,NEAUUNBQQPLQGJ-UHFFFAOYSA-N,CC(CC1CCC(CC1)CC(=O)N1C2CCC1CN(C2)C)C,063990-63-6,-4.360495145,CC(C)CC1CCC(CC(=O)N2C3CCC2CN(C)C3)CC1
3871,B-9100,2.6-bis[(E)-2-phenylethenyl]pyridine,GFUKPDBFDRKRRO-YXLFCKQPSA-N,C1CC(/C=C/C2CCCCC2)NC(C1)/C=C/C1CCCCC1,010129-71-2,-6.276268725,C(=CC1CCCC(C=CC2CCCCC2)N1)C1CCCCC1
3872,B-9101,N-[(2-chlorophenyl)methyl]-1-phenylpropan-2-amine,LRXXRIXDSAEIOR-UHFFFAOYSA-N,CC(CC1CCCCC1)NCC1CCCCC1Cl,013364-32-4,-3.992996787,CC(CC1CCCCC1)NCC1CCCCC1Cl
3873,B-9102,2-[4-(1.3-benzodioxol-5-ylmethyl)piperazin-1-yl]pyrimidine,OQDPVLVUJFGPGQ-UHFFFAOYSA-N,C1CNC(NC1)N1CCN(CC1)CC1CCC2C(C1)OCO2,003605-01-4,-2.313052822,C1CNC(N2CCN(CC3CCC4OCOC4C3)CC2)NC1
3874,B-9103,N-(1-piperidin-1-ylpropan-2-yl)-N-pyridin-2-ylpropanamide,ZBAFFZBKCMWUHM-UHFFFAOYSA-N,CCC(=O)N(C1CCCCN1)C(CN1CCCCC1)C,052373-67-8,-3.761530306,CCC(=O)N(C(C)CN1CCCCC1)C1CCCCN1
3875,B-9104,(4-chlorophenyl)-(3-methyl-3.8-diazabicyclo[3.2.1]octan-8-yl)methanone,FZVUISTUCPQRLS-UHFFFAOYSA-N,CN1CC2CCC(C1)N2C(=O)C1CCC(CC1)Cl,063978-15-4,-2.566716429,CN1CC2CCC(C1)N2C(=O)C1CCC(Cl)CC1
3876,B-9107,N-(1-phenylpropan-2-yl)acetamide,YPKBVWZHVTZSPU-UHFFFAOYSA-N,CC(CC1CCCCC1)NC(=O)C,014383-60-9,-2.134635516,CC(=O)NC(C)CC1CCCCC1
3877,B-9108,di(phenyl)-piperidin-4-ylmethanol,ZMISODWVFHHWNR-UHFFFAOYSA-N,OC(C1CCCCC1)(C1CCCCC1)C1CCNCC1,000115-46-8,-1.38998863,OC(C1CCCCC1)(C1CCCCC1)C1CCNCC1
3878,B-9109,2-(1.3-dioxoisoindol-2-yl)acetyl chloride,RHZBRCQIKQUQHQ-UHFFFAOYSA-N,ClC(=O)CN1C(=O)C2C(C1=O)CCCC2,006780-38-7,-1.007072425,O=C(Cl)CN1C(=O)C2CCCCC2C1=O
3879,B-9110,N.N-dimethyl-3-[1-(phenylmethyl)indazol-3-yl]oxypropan-1-amine,CNBGNNVCVSKAQZ-UHFFFAOYSA-N,CN(CCCOC1NN(C2C1CCCC2)CC1CCCCC1)C,000642-72-8,-4.047119081,CN(C)CCCOC1NN(CC2CCCCC2)C2CCCCC12
3880,B-9111,(2Z)-2-(dimethylhydrazinylidene)-1-(4-phenoxyphenyl)ethanone,AHGTVVKFAJFTJE-ATVHPVEESA-N,CN(/N=C\C(=O)C1CCC(CC1)OC1CCCCC1)C,024346-20-1,-3.55300665,CN(C)N=CC(=O)C1CCC(OC2CCCCC2)CC1
3881,B-9112,1-(1.3-benzodioxol-5-ylmethyl)-4-[di(phenyl)methyl]piperazine,ORAUEDBBTFLQSK-UHFFFAOYSA-N,C1CCC(CC1)C(C1CCCCC1)N1CCN(CC1)CC1CCC2C(C1)OCO2,000053-31-6,-4.942803781,C1CCC(C(C2CCCCC2)N2CCN(CC3CCC4OCOC4C3)CC2)CC1
3882,B-9114,N'-(7-chloro-2-methoxyacridin-4-yl)-N.N-dimethylpentane-1.4-diamine,VZLSHAUEBAEMHM-UHFFFAOYSA-N,COC1CC(NC(CCCN(C)C)C)C2C(C1)CC1C(N2)CCC(C1)Cl,064046-82-8,-7.099144978,COC1CC2CC3CC(Cl)CCC3NC2C(NC(C)CCCN(C)C)C1
3883,B-9115,(1R.15R.17S.18S)-17-ethyl-7-methoxy-3.13-diazapentacyclo[13.3.1.02.10.04.9.013.18]nonadeca-2(10).4(9).5.7-tetraene,HSIBGVUMFOSJPD-CFDPKNGZSA-N,CC[C@H]1C[C@H]2CN3[C@@H]1[C@@H](C2)C1[NH]C2C(C1CC3)CC(CC2)OC,017378-46-0,-4.082045964,CCC1CC2CC3C4NC5CCC(OC)CC5C4CCN(C2)C13
3884,B-9116,(1-tert-butylpyrrolidin-3-yl) N-(2-chloro-6-methylphenyl)carbamate,HZPVYVIKZIPUDA-UHFFFAOYSA-N,O=C(NC1C(C)CCCC1Cl)OC1CCN(C1)C(C)(C)C,031755-08-5,-4.594335253,CC1CCCC(Cl)C1NC(=O)OC1CCN(C(C)(C)C)C1
3885,B-9117,1-(4-methylaminophenyl)propan-1-one,MPXOQEAPYGISHY-UHFFFAOYSA-N,CCC(=O)C1CCC(CC1)NC,053033-82-2,-1.924971644,CCC(=O)C1CCC(NC)CC1
3886,B-9121,2-diethylaminoethyl 2.2-di(phenyl)acetate,JGOAIQNSOGZNBX-UHFFFAOYSA-N,CCN(CCOC(=O)C(C1CCCCC1)C1CCCCC1)CC,000064-95-9,-4.216891655,CCN(CC)CCOC(=O)C(C1CCCCC1)C1CCCCC1
3887,B-9123,5-bromo-3H-1.3-benzoxazol-2-one,DMHTZWJRUUOALC-UHFFFAOYSA-N,BrC1CCC2C(C1)[NH]C(=O)O2,014733-73-4,-2.330450322,O=C1NC2CC(Br)CCC2O1
3888,B-9124,5-bromo-3-cyclopentyl-1.6-dimethylpyrimidine-2.4-dione,UEKGKTSCDCCRKX-UHFFFAOYSA-N,CC1N(C)C(=O)N(C(=O)C1Br)C1CCCC1,032000-82-1,-3.238011335,CC1C(Br)C(=O)N(C2CCCC2)C(=O)N1C
3889,B-9129,3-(2-methylpiperidin-1-yl)propyl 2.2-di(phenyl)acetate,RJUUDPCLWNXKQZ-UHFFFAOYSA-N,O=C(C(C1CCCCC1)C1CCCCC1)OCCCN1CCCCC1C,063905-82-8,-5.783234398,CC1CCCCN1CCCOC(=O)C(C1CCCCC1)C1CCCCC1
3890,B-9130,N-(2-methylphenyl)-2-propylaminopropanamide,MVFGUOIZUNYYSO-UHFFFAOYSA-N,CCCNC(C(=O)NC1CCCCC1C)C,014289-32-8,-2.609848753,CCCNC(C)C(=O)NC1CCCCC1C
3891,B-9131,1-[2-(di(propan-2-yl)amino)ethyl]-8-methoxy-4.5-dihydro-3H-1-benzazepin-2-one,WUUPKSODGWXAMQ-UHFFFAOYSA-N,COC1CCC2C(C1)N(CCN(C(C)C)C(C)C)C(=O)CCC2,054951-31-4,-4.465629757,COC1CCC2CCCC(=O)N(CCN(C(C)C)C(C)C)C2C1
3892,B-9132,(1-ethylpiperidin-4-yl) N-(2-chloro-6-methylphenyl)carbamate,UNVDLZFIUJGXJR-UHFFFAOYSA-N,CCN1CCC(CC1)OC(=O)NC1C(C)CCCC1Cl,033531-33-8,-4.167105225,CCN1CCC(OC(=O)NC2C(C)CCCC2Cl)CC1
3893,B-9133,5-chloro-2-ethyl-9-methyl-2.4.9.15-tetrazatricyclo[9.4.0.03.8]pentadeca-1(11).3(8).4.6.12.14-hexaen-10-one,YSEMEGXOKULCML-UHFFFAOYSA-N,CCN1C2NCCCC2C(=O)N(C2C1NC(Cl)CC2)C,133627-12-0,-4.1100001,CCN1C2NCCCC2C(=O)N(C)C2CCC(Cl)NC21
3894,B-9134,3-amino-1-(4-fluorophenyl)pyrrolidin-2-one,LSAHUFPNCNCJLX-UHFFFAOYSA-N,NC1CCN(C1=O)C1CCC(CC1)F,005301-36-0,-0.926541516,NC1CCN(C2CCC(F)CC2)C1=O
3895,B-9135,ethyl 2-(2-dimethylaminoethoxy)-6-methyl-3-propan-2-ylbenzoate,LGUQLTCUYSWFIN-UHFFFAOYSA-N,CCOC(=O)C1C(C)CCC(C1OCCN(C)C)C(C)C,052073-23-1,-3.83400203,CCOC(=O)C1C(C)CCC(C(C)C)C1OCCN(C)C
3896,B-9136,3-(1.3-oxazol-2-yl)-1-phenylurea,WRHGKVNXGAUMGD-UHFFFAOYSA-N,O=C(NC1NCCO1)NC1CCCCC1,033887-04-6,-2.225140471,O=C(NC1CCCCC1)NC1NCCO1
3897,B-9137,4-chloro-1.3-benzoxazol-2-amine,LMTOFAYSICBYRU-UHFFFAOYSA-N,NC1OC2C(N1)C(Cl)CCC2,064037-10-1,-2.193382294,NC1NC2C(Cl)CCCC2O1
3898,B-9138,3.4-dihydro-1H-2.3-benzoxazin-7-amine,WEYTUUBWDDEAGG-UHFFFAOYSA-N,NC1CCC2C(C1)CONC2,021038-16-4,-1.256491666,NC1CCC2CNOCC2C1
3899,B-9139,1-(4-chlorophenyl)-2-pyrrolidin-1-yliminoethanone,JZHFCTMECLSJFP-UHFFFAOYSA-N,O=C(C1CCC(CC1)Cl)C=NN1CCCC1,025555-22-0,-2.859648689,O=C(C=NN1CCCC1)C1CCC(Cl)CC1
3900,B-9140,2-phenylsulfanylbenzoic acid,PMLBXJKQYSENQH-UHFFFAOYSA-N,OC(=O)C1CCCCC1SC1CCCCC1,001527-12-4,-4.150070521,O=C(O)C1CCCCC1SC1CCCCC1
3901,B-9141,3-methyl-6-nitro-1.4-dihydro-2.3-benzoxazine,KAKXDVMMEINZJU-UHFFFAOYSA-N,CN1OCC2C(C1)CC(CC2)[N+](=O)[O-],021977-25-3,-2.496536213,CN1CC2CC([N+](=O)[O-])CCC2CO1
3902,B-9142,1-(4-chlorophenoxy)-3.3-dimethylbutan-2-one,WISVKXCNQOLCJL-UHFFFAOYSA-N,O=C(C(C)(C)C)COC1CCC(CC1)Cl,024473-06-1,-3.854392258,CC(C)(C)C(=O)COC1CCC(Cl)CC1
3903,B-9143,[(2R)-2.5.7.8-tetramethyl-2-[(4R.8R)-4.8.12-trimethyltridecyl]chroman-6-yl] acetate,ZAKOWWREFLAJOT-CEFNRUSXSA-N,C[C@@H](CCC[C@]1(C)CCC2C(O1)C(C)C(C(C2C)OC(=O)C)C)CCC[C@@H](CCCC(C)C)C,000133-80-2,-5.77153512,CC(=O)OC1C(C)C(C)C2OC(C)(CCCC(C)CCCC(C)CCCC(C)C)CCC2C1C
3904,B-9144,5.7-dibromo-3H-1.3-benzoxazol-2-one,AGSLHFQPWVSWHT-UHFFFAOYSA-N,BrC1CC(Br)CC2C1OC(=O)[NH]2,005459-02-9,-3.663966404,O=C1NC2CC(Br)CC(Br)C2O1
3905,B-9145,2-diethylamino-1-phenothiazin-10-ylethanone,BPWOKDWTZDTHNX-UHFFFAOYSA-N,CCN(CC(=O)N1C2CCCCC2SC2C1CCCC2)CC,000641-33-8,-5.146449256,CCN(CC)CC(=O)N1C2CCCCC2SC2CCCCC21
3906,B-9146,(4-chlorophenyl)-(2H-quinolin-1-yl)methanone,GPVHXPLPRPJTMZ-UHFFFAOYSA-N,ClC1CCC(CC1)C(=O)N1CC=CC2C1CCCC2,030831-82-4,-4.483002412,O=C(C1CCC(Cl)CC1)N1CC=CC2CCCCC21
3907,B-9147,8-chloro-6-piperazin-1-ylbenzo[b][1.5]benzoxazepine,QWGDMFLQWFTERH-UHFFFAOYSA-N,ClC1CCC2C(C1)C(=NC1C(O2)CCCC1)N1CCNCC1,014028-44-5,-4.088561893,ClC1CCC2OC3CCCCC3N=C(N3CCNCC3)C2C1
3908,B-9148,N-[4-chloro-2-(4-chlorophenyl)sulfanylphenyl]-3-piperidin-1-ylpropanamide,KCGUXDJRVTZQAT-UHFFFAOYSA-N,O=C(NC1CCC(CC1SC1CCC(CC1)Cl)Cl)CCN1CCCCC1,063916-56-3,-6.784745669,O=C(CCN1CCCCC1)NC1CCC(Cl)CC1SC1CCC(Cl)CC1
3909,B-9149,1-[[4-(1.2.3.4-tetrahydroisoquinolin-1-ylmethyl)-1-bicyclo[2.2.2]octanyl]methyl]-1.2.3.4-tetrahydroisoquinoline,DDOXROFFXDWGCO-UHFFFAOYSA-N,C1CCC2C(C1)C(NCC2)CC12CCC(CC1)(CC2)CC1NCCC2C1CCCC2,063990-94-3,-9.737605886,C1CCC2C(C1)CCNC2CC12CCC(CC3NCCC4CCCCC43)(CC1)CC2
3910,B-9150,2-methoxy-N-methylbenzamide,NXVAEVHJWOBXKG-UHFFFAOYSA-N,CNC(=O)C1CCCCC1OC,003400-35-9,-1.503659252,CNC(=O)C1CCCCC1OC
3911,B-9151,N-phenyl-2H-quinoline-1-carboxamide,NUTCGOHCGOZXLH-UHFFFAOYSA-N,O=C(N1CC=CC2C1CCCC2)NC1CCCCC1,030831-91-5,-4.020064666,O=C(NC1CCCCC1)N1CC=CC2CCCCC21
3912,B-9152,(1-ethylpiperidin-3-yl) N-(2-methylphenyl)carbamate,UMCNJMVTYNYAGF-UHFFFAOYSA-N,CCN1CCCC(C1)OC(=O)NC1CCCCC1C,033531-59-8,-3.365807591,CCN1CCCC(OC(=O)NC2CCCCC2C)C1
3913,B-9153,2-(4-phenylphenyl)butanoic acid,IYEPZNKOJZOGJG-UHFFFAOYSA-N,CCC(C1CCC(CC1)C1CCCCC1)C(=O)O,000959-10-4,-4.25952593,CCC(C(=O)O)C1CCC(C2CCCCC2)CC1
3914,B-9154,ethyl 2-[2-(4-chlorophenyl)-1.3-benzoxazol-5-yl]propanoate,MUAYIAAIKPJCDG-UHFFFAOYSA-N,CCOC(=O)C(C1CCC2C(C1)NC(O2)C1CCC(CC1)Cl)C,051234-41-4,-5.980405219,CCOC(=O)C(C)C1CCC2OC(C3CCC(Cl)CC3)NC2C1
3915,B-9155,N-(2-Acetylphenyl)-2.2-dichloroacetamide,RXPVDFOFHSWFKA-UHFFFAOYSA-N,O=C(C(Cl)Cl)NC1CCCCC1C(=O)C,006526-45-0,-3.258508842,CC(=O)C1CCCCC1NC(=O)C(Cl)Cl
3916,B-9157,3-(2-bromophenoxy)propane-1.2-diol,LDMOQBBDWPPTNL-UHFFFAOYSA-N,OCC(COC1CCCCC1Br)O,063834-58-2,-2.496876922,OCC(O)COC1CCCCC1Br
3917,B-9158,1.1-di(phenyl)propan-2-one,DBNWBEGCONIRGQ-UHFFFAOYSA-N,CC(=O)C(C1CCCCC1)C1CCCCC1,000781-35-1,-3.143237916,CC(=O)C(C1CCCCC1)C1CCCCC1
3918,B-9159,N-Cyclohexyl-2-phenylacetamide,ZFEBPJQSSNUJGT-UHFFFAOYSA-N,O=C(CC1CCCCC1)NC1CCCCC1,010264-08-1,-3.588120848,O=C(CC1CCCCC1)NC1CCCCC1
3919,B-9161,3-(2-methyl-6-propylphenoxy)propane-1.2-diol,WFVXOSNUKDDNPO-UHFFFAOYSA-N,CCCC1CCCC(C1OCC(CO)O)C,063991-81-1,-3.342229102,CCCC1CCCC(C)C1OCC(O)CO
3920,B-9162,2-(2.4.6-triiodophenoxy)butanoic acid,VYAGDYWTCWDKIS-UHFFFAOYSA-N,CCC(C(=O)O)OC1C(I)CC(CC1I)I,000554-24-5,-6.833160213,CCC(OC1C(I)CC(I)CC1I)C(=O)O
3921,B-9164,1-[2-(di(propan-2-yl)amino)ethyl]-7-methoxy-4.5-dihydro-3H-1-benzazepin-2-one,KXWARPSMGAVRQE-UHFFFAOYSA-N,COC1CCC2C(C1)CCCC(=O)N2CCN(C(C)C)C(C)C,054951-30-3,-4.465629757,COC1CCC2C(CCCC(=O)N2CCN(C(C)C)C(C)C)C1
3922,B-9165,3-(5.6-dihydrobenzo[b][1.5]benzodiazepin-11-yl)-N.N-diethylpropan-1-amine,NNTDPGZVKDQKLS-UHFFFAOYSA-N,CCN(CCCN1C2CCCCC2NCC2C1CCCC2)CC,032047-63-5,-5.216442462,CCN(CC)CCCN1C2CCCCC2CNC2CCCCC21
3923,B-9167,6-chloro-3H-1.3-benzoxazol-2-one,MATCZHXABVLZIE-UHFFFAOYSA-N,ClC1CCC2C(C1)OC(=O)[NH]2,019932-84-4,-1.796364362,O=C1NC2CCC(Cl)CC2O1
3924,B-9169,4-[4.5-di(phenyl)-1.3-oxazol-2-yl]morpholine,GZOHDOWIEUISBL-UHFFFAOYSA-N,O1CCN(CC1)C1NC(C(O1)C1CCCCC1)C1CCCCC1,020503-74-6,-4.978383263,C1CCC(C2NC(N3CCOCC3)OC2C2CCCCC2)CC1
3925,B-9170,2-(3-chlorophenoxy)-2-methylpropanoic acid,PZBIVIXQLIVFHJ-UHFFFAOYSA-N,ClC1CCCC(C1)OC(C(=O)O)(C)C,017413-73-9,-2.800241859,CC(C)(OC1CCCC(Cl)C1)C(=O)O
3926,B-9173,(1R.9R.10R)-17-(2-phenylethyl)-17-azatetracyclo[7.5.3.01.10.02.7]heptadeca-2(7).3.5-trien-4-ol,CFBQYWXPZVQQTN-QPTUXGOLSA-N,OC1CCC2C(C1)[C@]13CCCC[C@H]3[C@@H](C2)N(CC1)CCC1CCCCC1,000468-07-5,-5.781894133,OC1CCC2CC3C4CCCCC4(CCN3CCC3CCCCC3)C2C1
3927,B-9175,2-Amino-N-hydroxybenzamide,VMKPDXOZTSISIW-UHFFFAOYSA-N,ONC(=O)C1CCCCC1N,002208-42-6,-0.747711616,NC1CCCCC1C(=O)NO
3928,B-9176,3-thiocyanatobenzoic acid,LUCYABSAYIDKJV-UHFFFAOYSA-N,N#CSC1CCCC(C1)C(=O)O,016671-87-7,-2.457440999,N#CSC1CCCC(C(=O)O)C1
3929,B-9177,N-heptylacridin-9-amine,MOPIFNSMNXBREW-UHFFFAOYSA-N,CCCCCCCNC1C2CCCCC2NC2C1CCCC2,007132-68-5,-7.477457006,CCCCCCCNC1C2CCCCC2NC2CCCCC21
3930,B-9179,7-chloroacridin-2-amine,ZXXJLAKNTDVKRB-UHFFFAOYSA-N,NC1CCC2C(C1)CC1C(N2)CCC(C1)Cl,023045-20-7,-4.580351812,NC1CCC2NC3CCC(Cl)CC3CC2C1
3931,B-9181,1-(3-chlorophenyl)-3-(1.3-oxazol-2-yl)urea,WCSFICOQZXHPAJ-UHFFFAOYSA-N,O=C(NC1NCCO1)NC1CCCC(C1)Cl,035629-49-3,-3.027620181,O=C(NC1CCCC(Cl)C1)NC1NCCO1
3932,B-9182,(1-methylpiperidin-4-yl) N-(2.6-dimethylphenyl)carbamate,OUUGPBMCNAINCY-UHFFFAOYSA-N,CN1CCC(CC1)OC(=O)NC1C(C)CCCC1C,033531-39-4,-3.414564661,CC1CCCC(C)C1NC(=O)OC1CCN(C)CC1
3933,B-9183,3-(2-methylpiperidin-1-yl)propyl N-phenylcarbamate,ODZHRFXEXCFPRQ-UHFFFAOYSA-N,O=C(NC1CCCCC1)OCCCN1CCCCC1C,063716-23-4,-3.384601761,CC1CCCCN1CCCOC(=O)NC1CCCCC1
3934,B-9184,2-(3-phenylphenyl)acetic acid,VLQLJPWPRYUYMK-UHFFFAOYSA-N,OC(=O)CC1CCCC(C1)C1CCCCC1,023948-77-8,-3.081330939,O=C(O)CC1CCCC(C2CCCCC2)C1
3935,B-9185,ethyl 3-(4-nitrophenyl)prop-2-enoate,PFBQVGXIMLXCQB-VMPITWQZSA-N,CCOC(=O)/C=C/C1CCC(CC1)[N+](=O)[O-],000953-26-4,-3.480891325,CCOC(=O)C=CC1CCC([N+](=O)[O-])CC1
3936,B-9186,1-pyridin-3-yl-N-(pyridin-3-ylmethyl)methanamine,FEBQXMFOLRVSGC-UHFFFAOYSA-N,C1CCC(CN1)CNCC1CCCNC1,001656-94-6,0.700586413,C1CNCC(CNCC2CCCNC2)C1
3937,B-9187,5-bromo-1-cyclopentyl-3.6-dimethylpyrimidine-2.4-dione,REEUQZUMFVRILK-UHFFFAOYSA-N,CC1N(C2CCCC2)C(=O)N(C(=O)C1Br)C,031991-90-9,-3.238011335,CC1C(Br)C(=O)N(C)C(=O)N1C1CCCC1
3938,B-9189,5-chloro-3H-1.3-benzoxazol-2-one,TZFWDZFKRBELIQ-UHFFFAOYSA-N,ClC1CCC2C(C1)[NH]C(=O)O2,000095-25-0,-2.659994878,O=C1NC2CC(Cl)CCC2O1
3939,B-9190,4-thiocyanatobenzoic acid,ZXHCITRMALCKPV-UHFFFAOYSA-N,N#CSC1CCC(CC1)C(=O)O,016671-88-8,-2.457440999,N#CSC1CCC(C(=O)O)CC1
3940,B-9192,(2R)-2-(3-chlorophenoxy)propanoic acid,YNTJKQDWYXUTLZ-ZCFIWIBFSA-N,OC(=O)[C@H](OC1CCCC(C1)Cl)C,031460-39-6,-2.22,CC(OC1CCCC(Cl)C1)C(=O)O
3941,B-9193,1-(2-methoxyethylamino)-3-(phenoxy)propan-2-ol,VDNNHBMWPQQUCI-UHFFFAOYSA-N,COCCNCC(COC1CCCCC1)O,007584-76-1,-0.03887082,COCCNCC(O)COC1CCCCC1
3942,B-9194,3-hydroxy-2-phenylquinoline-4-carboxylic acid,XAPRFLSJBSXESP-UHFFFAOYSA-N,OC(=O)C1C(O)C(NC2C1CCCC2)C1CCCCC1,000485-89-2,-4.903725699,O=C(O)C1C(O)C(C2CCCCC2)NC2CCCCC21
3943,B-9195,(3-methyl-3.8-diazabicyclo[3.2.1]octan-8-yl)-pyridin-4-ylmethanone,UUTBHLBAOBZVBU-UHFFFAOYSA-N,CN1CC2CCC(C1)N2C(=O)C1CCNCC1,063990-65-8,-2.083140388,CN1CC2CCC(C1)N2C(=O)C1CCNCC1
3944,B-9196,phenylmethyl 2-(2-dimethylaminoethoxy)-6-methyl-3-propan-2-ylbenzoate,MQJPEILRVHPFGH-UHFFFAOYSA-N,CN(CCOC1C(C(=O)OCC2CCCCC2)C(C)CCC1C(C)C)C,053206-75-0,-5.325503446,CC(C)C1CCC(C)C(C(=O)OCC2CCCCC2)C1OCCN(C)C
3945,B-9198,2-methylsulfanyl-10-(2-piperidin-3-ylethyl)phenothiazine,SXOYTTUKVFYFPB-UHFFFAOYSA-N,CSC1CCC2C(C1)N(CCC1CCCNC1)C1C(S2)CCCC1,010588-99-5,-3.759023956,CSC1CCC2SC3CCCCC3N(CCC3CCCNC3)C2C1
3946,B-9199,3-(4-chloro-2-propylphenoxy)propane-1.2-diol,YJVYEOGCTYVBEA-UHFFFAOYSA-N,CCCC1CC(Cl)CCC1OCC(CO)O,063834-72-0,-3.575747234,CCCC1CC(Cl)CCC1OCC(O)CO
3947,B-9200,1-(3.4-dimethoxyphenyl)propan-1-one,SBMSBQOMJGZBRY-UHFFFAOYSA-N,CCC(=O)C1CCC(C(C1)OC)OC,001835-04-7,-2.164464669,CCC(=O)C1CCC(OC)C(OC)C1
3948,B-9201,1-(2-chlorophenyl)-3-dimethylamino-1-phenylpropan-1-ol,WRCHFMBCVFFYEQ-UHFFFAOYSA-N,CN(CCC(C1CCCCC1Cl)(C1CCCCC1)O)C,000791-35-5,-3.617812149,CN(C)CCC(O)(C1CCCCC1)C1CCCCC1Cl
3949,B-9202,5-phenyl-3H-1.3.4-oxadiazole-2-thione,FOHWXVBZGSVUGO-UHFFFAOYSA-N,S=C1[NH]NC(O1)C1CCCCC1,023288-98-4,-1.687448548,S=C1NNC(C2CCCCC2)O1
3950,B-9203,butyl 2-(2-dimethylaminoethoxy)-6-methyl-3-propan-2-ylbenzoate,FXZFKDKFRLPXDC-UHFFFAOYSA-N,CCCCOC(=O)C1C(C)CCC(C1OCCN(C)C)C(C)C,053251-84-6,-4.876700416,CCCCOC(=O)C1C(C)CCC(C(C)C)C1OCCN(C)C
3951,B-9204,6-bromo-2-methyl-3-phenylquinazolin-4-one,VPVJXWSPNRIXTI-UHFFFAOYSA-N,BrC1CCC2C(C1)C(=O)N(C(N2)C)C1CCCCC1,004546-25-2,-5.489944714,CC1NC2CCC(Br)CC2C(=O)N1C1CCCCC1
3952,B-9205,(1-propan-2-ylpiperidin-4-yl) N-(2.6-dimethylphenyl)carbamate,DLILPLIAJBPSMW-UHFFFAOYSA-N,CC(N1CCC(CC1)OC(=O)NC1C(C)CCCC1C)C,033531-36-1,-4.394821234,CC1CCCC(C)C1NC(=O)OC1CCN(C(C)C)CC1
3953,B-9206,6-chloroacridin-2-amine,FMJZJKQGQIXNDY-UHFFFAOYSA-N,NC1CCC2C(C1)CC1C(N2)CC(CC1)Cl,040505-20-2,-4.580351812,NC1CCC2NC3CC(Cl)CCC3CC2C1
3954,B-9207,2-phenyl-1.3-benzoxazin-4-one,GWDYJKXSUSPLEA-UHFFFAOYSA-N,O=C1NC(OC2C1CCCC2)C1CCCCC1,003084-52-4,-4.6100001,O=C1NC(C2CCCCC2)OC2CCCCC12
3955,B-9208,5-phenyl-5H-furan-2-one,UXMKOLJFXKKWEQ-UHFFFAOYSA-N,O=C1C=CC(O1)C1CCCCC1,053138-45-7,-1.320925163,O=C1C=CC(C2CCCCC2)O1
3956,B-9209,6-bromo-3H-1.3-benzoxazol-2-one,DDNKJFBQMQOIKI-UHFFFAOYSA-N,BrC1CCC2C(C1)OC(=O)[NH]2,019932-85-5,-2.330450322,O=C1NC2CCC(Br)CC2O1
3957,B-9210,3-pyrrolidin-2-yl-1H-indole,MAVAXPFTVGSHTB-UHFFFAOYSA-N,C1CNC(C1)C1C[NH]C2C1CCCC2,003766-03-8,-1.291934418,C1CCC2C(C1)NCC2C1CCCN1
3958,B-9211,3-(2-propylphenoxy)propane-1.2-diol,YDFZDHDSQUITOX-UHFFFAOYSA-N,CCCC1CCCCC1OCC(CO)O,063991-78-6,-2.775008785,CCCC1CCCCC1OCC(O)CO
3959,B-9213,N-(6-methoxyquinolin-8-yl)pentane-1.4-diamine,INDBQLZJXZLFIT-UHFFFAOYSA-N,NCCCC(NC1CC(OC)CC2C1NCCC2)C,000090-34-6,-2.304650307,COC1CC2CCCNC2C(NC(C)CCCN)C1
3960,B-9214,(1-propylpyrrolidin-3-yl) N-(2.6-dimethylphenyl)carbamate,BNQKBUOGDLGSFJ-UHFFFAOYSA-N,CCCN1CCC(C1)OC(=O)NC1C(C)CCCC1C,031755-11-0,-3.936356634,CCCN1CCC(OC(=O)NC2C(C)CCCC2C)C1
3961,B-9215,(4-methoxyphenyl)-(2H-quinolin-1-yl)methanone,BDVRKCMKQNMZQR-UHFFFAOYSA-N,COC1CCC(CC1)C(=O)N1CC=CC2C1CCCC2,030831-83-5,-3.96891205,COC1CCC(C(=O)N2CC=CC3CCCCC32)CC1
3962,B-9219,2.3.4.5-TETRACHLOROBENZOIC ACID,FUXMTEKFGUWSNC-UHFFFAOYSA-N,OC(=O)C1CC(Cl)C(C(C1Cl)Cl)Cl,000050-74-8,-4.605905356,O=C(O)C1CC(Cl)C(Cl)C(Cl)C1Cl
3963,B-9220,(1-propylpiperidin-3-yl) N-(2.6-dimethylphenyl)carbamate,YCUIRUPTFLLVAU-UHFFFAOYSA-N,CCCN1CCCC(C1)OC(=O)NC1C(C)CCCC1C,031755-19-8,-4.458685722,CCCN1CCCC(OC(=O)NC2C(C)CCCC2C)C1
3964,B-9221,2-(4-cyclohexylphenyl)propanoic acid,YTUMWOBUZOYYJQ-UHFFFAOYSA-N,CC(C1CCC(CC1)C1CCCCC1)C(=O)O,024645-20-3,-4.482430772,CC(C(=O)O)C1CCC(C2CCCCC2)CC1
3965,B-9222,6-bromo-5-chloro-3H-1.3-benzoxazol-2-one,KVAWWXSLBDVXHJ-UHFFFAOYSA-N,O=C1[NH]C2C(O1)CC(C(C2)Cl)Br,005579-85-1,-3.130438675,O=C1NC2CC(Cl)C(Br)CC2O1
3966,B-9223,5-phenyl-4.5-dihydro-1.3-oxazol-2-amine,SYAKTDIEAPMBAL-UHFFFAOYSA-N,NC1=NCC(O1)C1CCCCC1,002207-50-3,-1.946156752,NC1=NCC(C2CCCCC2)O1
3967,B-9225,5-methoxy-1.3-benzoxazol-2-amine,YCBIFQTZAQVLTQ-UHFFFAOYSA-N,COC1CCC2C(C1)NC(O2)N,064037-14-5,-1.679983805,COC1CCC2OC(N)NC2C1
3968,B-9226,(1-methylpiperidin-3-yl) N-(2-methylphenyl)carbamate,DMFSJTDYAUNOLX-UHFFFAOYSA-N,CN1CCCC(C1)OC(=O)NC1CCCCC1C,031755-27-8,-2.84479384,CC1CCCCC1NC(=O)OC1CCCN(C)C1
3969,B-9227,(1-methylpyrrolidin-3-yl) N-(2.6-dimethylphenyl)carbamate,HBTVSGZSFGQRPQ-UHFFFAOYSA-N,CN1CCC(C1)OC(=O)NC1C(C)CCCC1C,032550-21-3,-2.892595073,CC1CCCC(C)C1NC(=O)OC1CCN(C)C1
3970,B-9229,3-(2.4-dimethylphenyl)-2-methylquinazolin-4-one,MPMDMUROZIYIIM-UHFFFAOYSA-N,CC1CCC(C(C1)C)N1C(C)NC2C(C1=O)CCCC2,001915-80-6,-5.291809401,CC1CCC(N2C(=O)C3CCCCC3NC2C)C(C)C1
3971,B-9231,4-(3-chloro-4-cyclohexylphenyl)-4-oxobutanoic acid,IJTPQQVCKPZIMV-UHFFFAOYSA-N,OC(=O)CCC(=O)C1CCC(C(C1)Cl)C1CCCCC1,032808-51-8,-5.537372161,O=C(O)CCC(=O)C1CCC(C2CCCCC2)C(Cl)C1
3972,B-9233,2-Amino-4-chlorobenzoic acid,JYYLQSCZISREGY-UHFFFAOYSA-N,ClC1CCC(C(C1)N)C(=O)O,000089-77-0,-3.676718922,NC1CC(Cl)CCC1C(=O)O
3973,B-9234,(1-methylpiperidin-3-yl) N-(2.6-dimethylphenyl)carbamate,YYEAOJQVTHGSAL-UHFFFAOYSA-N,CN1CCCC(C1)OC(=O)NC1C(C)CCCC1C,031755-14-3,-3.414564661,CC1CCCC(C)C1NC(=O)OC1CCCN(C)C1
3974,B-9235,N-ethyl-2-prop-2-enoxybenzamide,JAOYNCHGTPCSOJ-UHFFFAOYSA-N,C=CCOC1CCCCC1C(=O)NCC,063887-53-6,-2.937549631,C=CCOC1CCCCC1C(=O)NCC
3975,B-9236,2.4-dinitrosobenzene-1.3-diol,IBZJGOGLCABLDJ-UHFFFAOYSA-N,O=NC1CCC(C(C1O)N=O)O,000118-02-5,-0.507917878,O=NC1CCC(O)C(N=O)C1O
3976,B-9237,3-methoxy-2-propan-2-ylfuro[3.2-g]chromen-7-one,YQBNJPACAUPNLV-UHFFFAOYSA-N,COC1C(OC2C1CC1CCC(=O)OC1C2)C(C)C,000133-26-6,-4.121599211,COC1C2CC3CCC(=O)OC3CC2OC1C(C)C
3977,B-9238,1-[10-(2-dimethylaminopropyl)phenothiazin-2-yl]ethanone,XLOQNFNTQIRSOX-UHFFFAOYSA-N,CC(N(C)C)CN1C2CC(CCC2SC2C1CCCC2)C(=O)C,013461-01-3,-5.241985722,CC(=O)C1CCC2SC3CCCCC3N(CC(C)N(C)C)C2C1
3978,B-9239,3-methyl-2-phenyl-2-(2-piperidin-1-ylethyl)butanamide,GAGIXICTGYVZBX-UHFFFAOYSA-N,CC(C(C1CCCCC1)(C(=O)N)CCN1CCCCC1)C,002977-22-2,-4.19287623,CC(C)C(CCN1CCCCC1)(C(N)=O)C1CCCCC1
3979,B-9240,2-[3-chloro-4-(2.5-dihydropyrrol-1-yl)phenyl]propanoic acid,PIDSZXPFGCURGN-UHFFFAOYSA-N,CC(C1CCC(C(C1)Cl)N1CC=CC1)C(=O)O,031793-07-4,-3.318115117,CC(C(=O)O)C1CCC(N2CC=CC2)C(Cl)C1
3980,B-9241,N-(4-chloro-9.10-dioxoanthracen-1-yl)benzamide,FNCVZYRPXOZNSM-UHFFFAOYSA-N,O=C(C1CCCCC1)NC1CCC(C2C1C(=O)C1CCCCC1C2=O)Cl,000081-45-8,-7.843278394,O=C(NC1CCC(Cl)C2C(=O)C3CCCCC3C(=O)C12)C1CCCCC1
3981,B-9242,1-cyclohexyl-3.6-dimethyl-5-morpholin-4-ylpyrimidine-2.4-dione,GZIZRUUMRJJNQT-UHFFFAOYSA-N,CC1N(C2CCCCC2)C(=O)N(C(=O)C1N1CCOCC1)C,032250-76-3,-3.147251286,CC1C(N2CCOCC2)C(=O)N(C)C(=O)N1C1CCCCC1